<?xml version="1.0"?>
<VTKFile type="UnstructuredGrid"  version="0.1"  >
<UnstructuredGrid>
<Piece  NumberOfPoints="201" NumberOfCells="657">
<Points>
<DataArray  type="Float64"  NumberOfComponents="3"  format="ascii">-12.25714867658101 -0.2134616168917391 2448.870395217478  12.21171936158181 0.02224604904061407 -2448.902408665886  1553.237432200541 0.2653738151044477 -2367.898566161652  2943.176090527531 0.2285243102205675 -2051.601975606775  4045.280477814385 -0.02321036999918375 -1526.410583477029  4750.971514120882 0.05177993279627812 -844.4948894976778  4990.872598952001 -0.08131495697875772 -81.01249557536912  4741.670400581545 -0.2007194663887081 683.1738338976223  4028.474075230458 -0.116981074987638 1372.706161604679  2921.59102383703 -0.008264759974775842 1925.105679505168  1529.540117329589 -0.01196291127278468 2294.845535832278  1963.775381268388 -1535.720132218772 -2179.43244503321  1929.613333030438 1191.505733322002 2142.932563076276  4753.603846190849 -1361.731312611446 -444.7323944162732  3411.584738029445 -1487.310276378277 1575.263755954686  4315.43729271299 1377.047357568169 962.9385741537635  4309.440474225105 1378.591353775333 -1133.418481985618  2191.750536122625 1374.586064875975 -2156.425269036894  740.2724818735611 -1374.06552948332 2314.620852783295  3406.841662229547 -1372.801862587997 -1745.535565288295  2374.213467391576 -2694.772922441363 -1782.927402456431  3522.535607070291 -2637.909570897444 -1262.114225556375  2417.430485601115 -3772.461294374458 -1196.169110276539  3402.299191756334 -3536.448363908225 -624.9111176733903  2136.46445115797 -4489.181079951905 -518.761006529092  3038.401317713454 -4025.444214970415 73.2475239178824  1596.524401497153 -4795.959882271422 195.2807430415033  2312.43810211207 -4165.146913378765 797.1790720453263  831.8919800696217 -4670.795248784148 875.9121309812032  1475.769039811443 -3810.3446551735 1437.287515094703  -62.48121806453532 -4095.244205124458 1469.918835576501  3545.320952836484 -3269.012586293925 645.2026541707686  3388.949873984605 1370.390473926234 1609.432888325315  3439.311526053694 2652.099668487111 1176.265066876474  4169.77517958007 2539.413925684445 492.6146550245478  545.5902975139336 -3044.495200876421 1943.535984039044  2018.779133306052 -2667.31439126904 1801.878710729883  2357.662181749718 2538.031913104686 1739.628915813763  2277.122420041028 3711.646983800817 1216.277165054884  4758.337732168337 -1328.041853421517 288.8600408537624  4199.696388194458 -2745.815224870192 -25.660557151495  4336.708858966605 -1380.195779274567 -1105.547269457492  762.8760519577902 1374.920010260965 -2350.17082963127  3373.19207075376 1338.434114970365 -1768.041332420015  3425.02299669074 2641.264258789814 -1326.519389849008  1038.866471027169 -4532.751363945291 -1020.018684118162  -727.4331281453303 -4727.341120023641 855.5826802673132  1017.886364806067 -2765.584015695811 -2028.251308800816  4147.180081492354 2571.89912381145 -649.8332197921409  3104.092169290371 3718.149443991994 -752.070802733902  2206.796380003112 3622.560868897235 -1393.494136172725  1741.900694697269 4509.434731424003 -784.7914871557242  772.5227467620359 4236.92288764575 -1331.987717719388  226.8273237876834 4882.407442291289 -689.9763177637799  -783.8962721344627 4357.871713350509 -1202.847039921  -1299.130938785368 4793.385991147731 -496.2422400809129  -2287.100725067851 4092.377907509 -893.7614212041983  -250.3508556715313 5077.263553393739 49.95283658927178  -1601.139225043945 -3936.660554203765 1384.331866278053  -2208.350045176565 -4349.808509388501 709.6918843396381  -2688.903394094682 4251.697292855309 -209.017517460702  -3547.350238602131 3323.708095397157 -580.6243392447518  -3782.162040951356 3316.309454140014 118.2985924797568  -4431.133800588708 2186.258300044909 -326.6019845921016  -4495.892014810791 2076.162276092467 446.318167829341  -3931.721485418695 2073.218333037305 -1065.296357687816  -3639.60910930607 3071.107346962192 864.4042187988533  -4683.634503093301 906.3204399970311 -645.5204198680607  -4156.430102938185 1708.54611394152 1166.824285472584  -3981.057963453129 582.5334131696685 -1378.234161945814  -4474.152484308872 -658.2612577900244 -960.7913358524208  -3095.539723925028 2578.439771563522 1541.61807778135  -699.4165143257615 -2111.04332061878 2225.070480800525  -3014.967824544774 -3364.365377886879 1158.775957123651  -3575.623702743434 -892.665365478901 -1586.686110638848  -3868.92309003041 -2093.981753403968 -1108.585768951682  -4799.125489711864 575.85857562275 705.3824515743954  -1663.499567469714 3391.803147490362 -1611.719965548609  -3423.074732302945 1101.363965370375 1784.416083112313  1067.631247462421 3428.818566687185 1722.952538704707  -4619.178322640638 -1714.197007297081 -343.907784968887  -2893.151366345639 357.2008013445377 -1928.683492537291  -2272.932648464714 1964.340055555331 2025.175117345923  -2783.93556722079 -2255.432203451991 -1669.627238671764  -2921.323241541998 -3356.966204993258 -1109.096023663512  -2471.145444828141 3784.543870079999 1159.236803694186  -1261.499557937763 -4909.224269945508 180.5008152918803  -2393.749339992758 330.8357862330498 2204.451813144471  -3530.665442174226 -477.2297630430874 1800.301896361501  -1682.27177779025 -3370.302570096193 -1616.756527235349  -1692.795431476289 -4294.816188622794 -996.9785994287489  -1444.35378665417 -2135.795674501507 -2080.59774441128  2535.835933748482 4377.205178277128 -111.1874471869655  -3409.484200492287 -3605.396978743725 495.9467002517315  -4103.775299557076 -2434.546015607478 837.2728711702794  891.9187751782571 4412.629171463267 1134.269228131563  -328.413174098367 3982.524605944448 1538.048371812927  -119.980575280657 3002.526209678499 1991.023158449393  -1362.566320896505 1269.938904268683 2312.606123564864  -2263.529237168229 -2754.724066249772 1794.666617727079  1184.763123987512 3354.24900040552 -1786.907715461844  -2800.181818413566 -4058.673560293281 -495.3844779205539  -360.5925956884152 2573.596510545655 -2105.953718725934  -807.0872275876874 1103.614700710889 -2339.661906735694  -558.9623392048652 4750.700540841975 852.4663055008459  -1065.707137207565 -782.1963054776664 2390.80570344833  -356.8527123400066 -4169.278992692705 -1400.959181419558  -2288.2220478911 -1255.25922863581 2150.742800383522  -3520.525851377608 -2018.392897645166 1521.154915827927  -4378.885403297189 -968.9438121202013 1171.118461076538  -4787.046821823994 -1256.484148925903 425.2245215803649  -4967.862478166643 -163.0467843843101 -134.1688334102492  -1907.565710383941 2184.689429011384 -1969.235539145108  -2900.526466844979 2413.62721893422 -1569.762049681061  -423.4370416193355 -4786.521059784385 -805.1043758451328  -164.1072145562393 3760.158368146196 -1659.749613416079  1992.152249148673 4467.705239190715 615.1807760229062  4295.732178573307 -1317.504693741932 999.9435652345816  260.5347636593627 -1442.583562612623 -2354.074176503546  791.7367121293549 -4959.641002117562 -395.744373003408  -1527.936567293081 3252.064332877346 1774.22500234261  4773.912409638077 1276.687999025243 -452.9733130387098  3190.491184708222 3681.741823490505 584.6888970279049  3766.342829204425 3335.953725975213 -89.34044689267758  -3810.95256535184 -3016.901918224464 -562.7825100046588  -1658.08338511174 4780.025689556001 220.4278980340841  -2780.827645847438 4121.131773606243 499.5942363971395  -263.1620825678968 -3112.684193820015 -1939.295673091904  -1150.582882940377 -567.8720054039273 -2339.834099714035  -2439.990103982538 -910.5456203223558 -2039.555084898335  1156.259586715316 4939.754046531869 -145.6951285296092  134.7120953607382 -5051.642905586179 274.4431945940474  2752.492937763215 -3210.353169758913 1294.114514945537  4778.240633186456 1292.414585141591 254.3953275620871  2171.822663186792 -1362.660248717985 2060.645608108508  -4224.747498848253 -2705.234399189165 129.6053334309729  -901.0344378981883 -3359.181069589398 1819.357630930593  2440.740640598171 2463.592688922502 -1841.304153984039  -4282.788390614563 405.2979603645518 1335.565919507005  1127.171004739186 -3789.921230189801 -1575.987362384625  1213.630140113455 2444.283104877534 2044.907960308931  711.435519193011 4917.891251808012 510.7392169373037  -3101.876186953811 3184.14072059437 -1105.396036920605  4179.72220949914 -2447.512143018885 -717.2001967301215  -87.89430743995182 1325.36203979947 2368.330859758003  3776.613368145681 -2381.531365391752 1055.080927626298  -4846.168964944839 1209.050987099886 22.11833288146044  -2585.004986799601 -4349.708328844488 65.66099346991221  -1578.112449595017 -4749.418643850253 -386.122257558124  4480.07793251484 2241.317328114979 -90.16881155868755  -1123.302041813796 2509.485356003419 2093.767514177231  1395.958413721103 2278.619300484137 -2121.338922106001  -1669.907321490367 374.2488722747864 -2262.252453491608  -1830.965125292895 4449.101748096108 819.7001145345009  4243.465386862913 -2274.616936534616 609.3131839462608  -340.3350800433842 -5047.409764006253 -243.9681113308325  -3190.803582313772 1320.786489063585 -1712.024934008351  -2175.945327504369 1123.69512977788 -2091.023373008488  -1402.258998942466 4093.149368187077 1323.821240921473  -3513.512955734376 -3599.52418842047 -81.81306761659482  -0.02544759885614951 0.1496355215112485 -0.0364765089348387  -1593.833560753486 -1998.652655959507 103.4396088641132  2408.675728810565 779.1785868032749 -64.9977560982488  -963.3363310635988 2101.364597803758 562.1787981599806  1792.217698382066 -1489.07314307511 450.5953387100164  -1162.048267639551 217.9380237361091 -1061.16738508659  -2477.131818560067 396.4773889366542 56.2296226336632  476.41010584913 2376.762978452377 -480.2228991406437  1678.192631708846 -1171.364126683146 -772.6231048391649  -1308.5597053535 -222.4709813023326 1087.738944576465  1242.732411047059 1767.656536293968 825.0411950631734  -455.1693555823507 -2018.066917387006 -916.8447050963048  412.3813390520358 -2913.518097841302 -4.328272731492664  1001.603767726891 774.2512124130571 -1236.959365395
[...]
<PointData  Vectors="Coriolis"> 
<DataArray  type="Float64"  Name="Coriolis"  NumberOfComponents="3" format="ascii">-5.4396957339713916e-11 -9.7860207295946271e-09 5.4396957339716281e-11  6.6325139190472660e-12 9.7921050801583257e-09 -6.6325139190473525e-12  6.7805592328580113e-11 3.3345691457610076e-10 -6.7805592328580177e-11  5.7667703094518599e-11 -8.4619975005371156e-09 -5.7667703094519672e-11  -6.5013078734251861e-12 -1.4429264504108774e-08 6.5013078734266571e-12  1.2449361160737170e-11 -1.7047879749375884e-08 -1.2449361160737566e-11  -2.1368973218415000e-11 -1.8121408265388358e-08 2.1368973218415808e-11  -5.1953433935352879e-11 -1.9134658851428859e-08 5.1953433935350243e-11  -3.0598922493919988e-11 -2.0290602105418880e-08 3.0598922493918392e-11  -3.6233916458234792e-12 -2.0296688182797247e-08 3.6233916458221467e-12  -3.5533530140169189e-12 -1.7019328946822081e-08 3.5533530140159592e-12  -7.3968782849906524e-09 -3.1531586436083343e-09 7.3968782849906590e-09  5.4206303906210935e-09 -1.7581157266872895e-08 -5.4206303906211026e-09  -5.1775274612904099e-09 -1.7263530624675771e-08 5.1775274612904041e-09  -6.0529376599077804e-09 -1.9400915277329008e-08 6.0529376599077746e-09  5.1986552469188995e-09 -1.8937457874220091e-08 -5.1986552469189012e-09  5.5732773473897228e-09 -1.5780361638528504e-08 -5.5732773473897228e-09  6.6172048058356481e-09 -4.4897468039872467e-09 -6.6172048058356531e-09  -6.5258517638107067e-09 -1.2649037814562823e-08 6.5258517638107133e-09  -6.1384446771654678e-09 -1.1587451503338848e-08 6.1384446771654712e-09  -1.2382284943127847e-08 -7.2002168378648183e-09 1.2382284943127840e-08  -1.1239843587150639e-08 -1.3169767780018237e-08 1.1239843587150641e-08  -1.6483526885835101e-08 -9.0289369825421653e-09 1.6483526885835101e-08  -1.4437681682595838e-08 -1.3231598950951434e-08 1.4437681682595840e-08  -1.9052484339493078e-08 -8.5844690822954761e-09 1.9052484339493094e-08  -1.6252365793758211e-08 -1.2370860870837077e-08 1.6252365793758217e-08  -2.0298035898533671e-08 -6.8040828005543831e-09 2.0298035898533674e-08  -1.7291171967426671e-08 -1.0711333689990120e-08 1.7291171967426667e-08  -2.0248289787921681e-08 -4.5306453177996062e-09 2.0248289787921687e-08  -1.6673410463939160e-08 -9.4101419705077770e-09 1.6673410463939170e-08  -1.8476755550562603e-08 -2.1692547501409177e-09 1.8476755550562610e-08  -1.2808808530002044e-08 -1.5203629610245852e-08 1.2808808530002032e-08  5.5584642414787765e-09 -1.9575557056865356e-08 -5.5584642414787848e-09  1.0538581066496417e-08 -1.6851386345694670e-08 -1.0538581066496421e-08  9.5680401615632707e-09 -1.6892124220973614e-08 -9.5680401615632691e-09  -1.4199398860540916e-08 -8.0967183270521338e-09 1.4199398860540927e-08  -1.1834763617578566e-08 -1.4690878483717135e-08 1.1834763617578553e-08  1.0949394863145879e-08 -1.5691128557057176e-08 -1.0949394863145876e-08  1.5630334806158025e-08 -1.2087025112907825e-08 -1.5630334806158025e-08  -4.9301084178323191e-09 -1.8084781415862250e-08 4.9301084178323240e-09  -1.0535572232762902e-08 -1.6169223120832938e-08 1.0535572232762900e-08  -5.6708353567040784e-09 -1.5894014883428184e-08 5.6708353567040817e-09  6.7295919946953242e-09 4.4233596561450096e-09 -6.7295919946953225e-09  6.0020769181902239e-09 -1.1444833817311685e-08 -6.0020769181902305e-09  1.1315569809876491e-08 -1.2706868844618402e-08 -1.1315569809876487e-08  -1.9974630306933138e-08 -3.4786538560007621e-09 1.9974630306933128e-08  -2.0747350173591865e-08 2.5293700427821344e-09 2.0747350173591838e-08  -1.3156322287674579e-08 5.4284760615910537e-10 1.3156322287674583e-08  1.0224822831830534e-08 -1.5651661085318153e-08 -1.0224822831830547e-08  1.5454235244139641e-08 -1.2172259231026314e-08 -1.5454235244139654e-08  1.6066439691636499e-08 -7.8161898252918790e-09 -1.6066439691636502e-08  1.9470979347442621e-08 -6.8146796725742839e-09 -1.9470979347442618e-08  1.8963221992191194e-08 -1.6507225679753528e-09 -1.8963221992191190e-08  2.1191111253755166e-08 -4.5390084643981885e-10 -2.1191111253755156e-08  1.9148445959610710e-08 5.2423472768451605e-09 -1.9148445959610700e-08  2.0382918714879474e-08 5.9632540746587108e-09 -2.0382918714879477e-08  1.7085074685913104e-08 1.0988864642676145e-08 -1.7085074685913107e-08  2.1793302489880402e-08 1.0668226472804227e-09 -2.1793302489880389e-08  -1.7690991875096972e-08 5.2386906030637451e-09 1.7690991875096959e-08  -1.8601248048153527e-08 8.8621608260145558e-09 1.8601248048153524e-08  1.7440949427923239e-08 1.1265392730283353e-08 -1.7440949427923236e-08  1.3131680310015507e-08 1.4951503483414280e-08 -1.3131680310015492e-08  1.3075515374104557e-08 1.4723512257890521e-08 -1.3075515374104544e-08  8.1853642557651739e-09 1.7319867684170325e-08 -8.1853642557651755e-09  8.0058268076529808e-09 1.6593597315423506e-08 -8.0058268076529808e-09  8.0510600309173574e-09 1.8000501965669838e-08 -8.0510600309173591e-09  1.2696187716626963e-08 1.3865780358172095e-08 -1.2696187716626964e-08  3.4043585317332642e-09 1.8726205619446925e-08 -3.4043585317332646e-09  7.0492233491276082e-09 1.5211714241902914e-08 -7.0492233491276148e-09  2.3776959034939138e-09 2.0024101783544744e-08 -2.3776959034939159e-09  -2.4800454076212510e-09 1.9278488523352597e-08 2.4800454076212514e-09  1.1403128501416723e-08 1.1012584579338104e-08 -1.1403128501416721e-08  -1.0251959836402184e-08 -3.7520618102541768e-09 1.0251959836402191e-08  -1.4520125130621317e-08 1.1488912904565397e-08 1.4520125130621320e-08  -3.6193737739104899e-09 2.0037801860850887e-08 3.6193737739104903e-09  -8.1590844293836218e-09 1.8020177447660554e-08 8.1590844293836185e-09  2.3273279363933329e-09 1.7181257406779516e-08 -2.3273279363933349e-09  1.4867784547704390e-08 1.1376601907284916e-08 -1.4867784547704391e-08  4.9608084029550753e-09 1.1536190223410216e-08 -4.9608084029550910e-09  1.5419067643654155e-08 -9.1735751809611265e-09 -1.5419067643654175e-08  -6.3595081852901503e-09 1.7678886585963164e-08 6.3595081852901528e-09  1.6205921986704140e-09 2.0078846169599145e-08 -1.6205921986704134e-09  9.3229134494654923e-09 5.5913899897889232e-09 -9.3229134494654956e-09  -9.5253476616265778e-09 1.7176251242921176e-08 9.5253476616265761e-09  -1.3803398797720103e-08 1.4485904388605255e-08 1.3803398797720104e-08  1.6602074219659674e-08 9.3156022522422073e-09 -1.6602074219659677e-08  -2.1011257245713297e-08 5.3136750402515965e-09 2.1011257245713291e-08  1.5967316146801983e-09 5.0513036553092803e-09 -1.5967316146801979e-09  -2.1065466260381651e-09 1.1834229651337136e-08 2.1065466260381610e-09  -1.4828258497333812e-08 1.1580190104341786e-08 1.4828258497333794e-08  -1.8371074040604797e-08 8.7240325710668911e-09 1.8371074040604791e-08  -9.8436853586051716e-09 1.4252917803454519e-08 9.8436853586051667e-09  1.8050871447353194e-08 -1.0454028187244451e-08 -1.8050871447353194e-08  -1.4731791138738222e-08 1.3378058259669149e-08 1.4731791138738248e-08  -9.8491988496212629e-09 1.5267216303939214e-08 9.8491988496212595e-09  1.9276549285274294e-08 -5.4742599342410902e-09 -1.9276549285274301e-08  1.8120604402922476e-08 -1.1855426047662189e-09 -1.8120604402922476e-08  1.4124349282088593e-08 -4.8333042190345173e-09 -1.4124349282088598e-08  6.3291637565431162e-09 -8.9878070625392393e-10 -6.3291637565431162e-09  -1.2761333380728543e-08 6.6476427841065696e-09 1.2761333380728546e-08  1.5584209915491705e-08 -1.7697288156103859e-09 -1.5584209915491695e-08  -1.6631176676563608e-08 1.2086526270955264e-08 1.6631176676563628e-08  1.2111559898937007e-08 8.4455375543853102e-09 -1.2111559898937013e-08  5.2505854301114012e-09 1.3340307787905008e-08 -5.2505854301113971e-09  2.0777604666950032e-08 1.7394523589273271e-09 -2.0777604666950059e-08  -3.9783647173287528e-09 -3.2633039256266481e-09 3.9783647173287520e-09  -1.8693068444987712e-08 4.0243837019242802e-09 1.8693068444987709e-08  -5.9161380573020179e-09 4.9089769317056860e-09 5.9161380573020212e-09  -8.8622822161787222e-09 1.2559794269385688e-08 8.8622822161787172e-09  -3.9466702870701426e-09 1.5762909534079930e-08 3.9466702870701410e-09  -4.7675321046318506e-09 1.7203025526888987e-08 4.7675321046318506e-09  -5.2121508297790665e-10 1.8244824386825904e-08 5.2121508297790810e-10  9.8070513158069727e-09 1.5520300645431432e-08 -9.8070513158069860e-09  1.0075137790375683e-08 1.6984982054463395e-08 -1.0075137790375689e-08  -2.0865183530755448e-08 2.7053661460765026e-09 2.0865183530755438e-08  1.7122062556688591e-08 4.2000600333214222e-09 -1.7122062556688588e-08  1.8657665872869186e-08 -9.0218544862873385e-09 -1.8657665872869202e-08  -5.0069421640168703e-09 -1.9085603793233106e-08 5.0069421640168687e-09  -6.9813025380003269e-09 7.4426779251374943e-09 6.9813025380003294e-09  -2.1409529374190903e-08 -3.1108847832743760e-09 2.1409529374190903e-08  1.5132107329887116e-08 3.3741340652589067e-09 -1.5132107329887123e-08  4.8400361371195130e-09 -1.7342268796394744e-08 -4.8400361371195139e-09  1.4664778928757510e-08 -1.3685598656031423e-08 -1.4664778928757490e-08  1.3038278810180866e-08 -1.4780743848108218e-08 -1.3038278810180860e-08  -1.1779149995991207e-08 1.5850489375910992e-08 1.1779149995991205e-08  2.0281920156161496e-08 6.9200614209347144e-09 -2.0281920156161496e-08  1.7201904721715584e-08 1.1108509372657986e-08 -1.7201904721715548e-08  -1.4557424611162598e-08 6.6343528262736840e-09 1.4557424611162588e-08  -2.6062437205132022e-09 1.5359351387879241e-08 2.6062437205132026e-09  -3.9584260508565314e-09 1.9041882027235555e-08 3.9584260508565306e-09  2.1107909130258477e-08 -4.8533140384453106e-09 -2.1107909130258464e-08  -2.1811009887130870e-08 -6.4248106690375031e-10 2.1811009887130860e-08  -1.3345547516432051e-08 -1.4490310723673381e-08 1.3345547516432056e-08  4.7547065053404279e-09 -1.8101844551255877e-08 -4.7547065053404287e-09  -6.0859121501025497e-09 -1.7790380244093152e-08 6.0859121501025472e-09  -1.0490328342700060e-08 1.6056349505485182e-08 1.0490328342700048e-08  -1.5691049842423315e-08 2.5965590929103734e-10 1.5691049842423302e-08  1.1338032022280931e-08 -7.2978325849793553e-09 -1.1338032022280929e-08  1.7554423889897711e-09 1.5321086911429202e-08 -1.7554423889897757e-09  -1.7316985230513671e-08 -2.3757903215724016e-09 1.7316985230513671e-08  1.1313357560669373e-08 -1.2540252655170230e-08 -1.1313357560669377e-08  2.1099032786386499e-08 -3.4164639869381453e-09 -2.1099032786386506e-08  1.2941826958566032e-08 1.5163476766157568e-08 -1.2941826958566024e-08  -9.7143392967115608e-09 -1.5667959869458381e-08 9.7143392967115691e-09  6.5160720452979150e-09 -8.5355115167810041e-09 -6.5160720452979183e-09  -9.3700184922245666e-09 -1.7518138654847428e-08 9.3700184922245633e-09  4.5269292462514370e-09 1.7785085991705342e-08 -4.5269292462514379e-09  -1.8016763076555422e-08 1.0640776539300599e-08 1.8016763076555422e-08  -2.0141241226243687e-08 7.0221189423166169e-09 2.0141241226243670e-08  8.4418915283681167e-09 -1.6967142206241016e-08 -8.4418915283681349e-09  1.2026881697317087e-08 -3.7230079477247329e-10 -1.2026881697317080e-08  1.0842444971650990e-08 -8.9662639946546299e-10 -1.0842444971650990e-08  1.8204626629506701e-09 1.7324972353070741e-08 -1.8204626629506715e-09  1.9276256219333721e-08 7.2470919756737546e-09 -1.9276256219333721e-08  -8.6126538554674145e-09 -1.7400911135553485e-08 8.6126538554674145e-09  -2.1785585237079030e-08 1.6924284880651329e-09 2.1785585237079010e-08  5.4911602768936856e-09 1.9476558426869474e-08 -5.4911602768936840e-09  4.9966027327450289e-09 1.8119088055361322e-08 -4.9966027327450272e-09  1.8325222188729477e-08 4.5354513637935309e-09 -1.8325222188729477e-08  -1.4323841385306048e-08 1.4068289302941785e-08 1.4323841385306055e-08  3.7673834051079883e-11 -3.4418596288569843e-12 -3.7673834051078811e-11  -1.0993272739741279e-08 8.5391892425409149e-09 1.0993272739741278e-08  4.2213371658800977e-09 -1.3024062977358756e-08 -4.2213371658801044e-09  1.1706799298106851e-08 3.6526829162300065e-09 -1.1706799298106861e-08  -8.1616219763320788e-09 -1.1569199945282765e-08 8.1616219763320706e-09  1.1918876247276942e-09 1.0964435369555811e-08 -1.1918876247276979e-09  2.1265204467370338e-09 1.3392215817743927e-08 -2.1265204467370313e-09  1.3199726685510866e-08 -1.2038265308226287e-09 -1.3199726685510867e-08  -6.5390489968149681e-09 -6.9009334196019053e-09 6.5390489968149739e-09  -1.2197460989198000e-09 3.5671927098323096e-09 1.2197460989197956e-09  9.6194262141468186e-09 -9.8771369318325225e-09 -9.6194262141468169e-09  -1.1190584837005383e-08 5.7220034339736297e-09 1.1190584837005386e-08  -1.5844199840853825e-08 -2.2084044264953218e-09 1.5844199840853845e-08  4.3536078280563918e-09 -1.1980612871374965e-09 -4.3536078280563910e-09  -1.2537476352890988e-08 -7.9123622367330403e-10 1.2537476352890984e-08  -1.4745191216229747e-09 -1.0070667680031721e-08 1.4745191216229714e-09  1.1860722189217269e-08 1.0488351730956994e-08 -1.1860722189217269e-08  -5.4458238074670997e-09 1.5282241135086292e-08 5.4458238074670947e-09  6.9211506742209828e-10 -1.6341251893397917e-08 -6.9211506742210066e-10  7.6101228078775613e-09 -3.1031448606772709e-09 -7.6101228078775580e-09  1.6485884903351406e-08 -3.6846172240272137e-09 -1.6485884903351429e-08  9.6912055113335836e-09 -9.2068744440234677e-09 -9.6912055113335836e-09  1.3176220495629680e-08 -1.1196948011014998e-08 -1.3176220495629690e-08  6.1963881733294060e-09 1.0470226824128814e-08 -6.1963881733294250e-09  -4.9368083958175307e-09 -1.5005964563022374e-08 4.9368083958175241e-09  1.1005646886407420e-08 7.4281305970548431e-09 -1.1005646886407400e-08  -5.4736394534136445e-09 1.3346477146176968e-08 5.4736394534136395e-09  9.3460738838600033e-10 -1.2377476285045685e-08 -9.3460738838600074e-10  -1.3102015062591222e-08 -1.0316345745195675e-08 1.3102015062591232e-08  4.7650296237022942e-09 1.6489273797398706e-08 -4.7650296237022925e-09  -5.5274339251400187e-09 2.0152397276841288e-09 5.5274339251400171e-09  -1.6617969696200226e-08 6.1642924264235174e-09 1.6617969696200219e-08  -1.7351878965011388e-08 4.0045038128097843e-09 1.7351878965011398e-08  -1.5315476292596988e-08 -7.8475449828463775e-09 1.5315476292596985e-08  1.2710344737588131e-08 1.1568042830491803e-08 -1.2710344737588109e-08  -1.5257701148504176e-08 -2.8806250567958912e-09 1.5257701148504196e-08  1.7637913761893233e-08 3.9362201782875557e-09 -1.7637913761893233e-08  -6.6960029474352200e-09 1.3743593540044492e-08 6.6960029474352241e-09  8.1111104708239347e-09 -1.5919695605138785e-08 -8.1111104708239330e-09  8.9672639524143921e-09 -2.7910817544150037e-09 -8.9672639524143871e-09  4.8399388227150705e-09 -4.6797756599183497e-09 -4.8399388227150763e-09  </DataArray> 
</PointData> 
</Piece>
</UnstructuredGrid>
</VTKFile>