<?xml version="1.0"?>
<VTKFile type="UnstructuredGrid"  version="0.1"  >
<UnstructuredGrid>
<Piece  NumberOfPoints="201" NumberOfCells="657">
<Points>
<DataArray  type="Float64"  NumberOfComponents="3"  format="ascii">-12.25714867658101 -0.2134616168917391 2448.870395217478  12.21171936158181 0.02224604904061407 -2448.902408665886  1553.237432200541 0.2653738151044477 -2367.898566161652  2943.176090527531 0.2285243102205675 -2051.601975606775  4045.280477814385 -0.02321036999918375 -1526.410583477029  4750.971514120882 0.05177993279627812 -844.4948894976778  4990.872598952001 -0.08131495697875772 -81.01249557536912  4741.670400581545 -0.2007194663887081 683.1738338976223  4028.474075230458 -0.116981074987638 1372.706161604679  2921.59102383703 -0.008264759974775842 1925.105679505168  1529.540117329589 -0.01196291127278468 2294.845535832278  1963.775381268388 -1535.720132218772 -2179.43244503321  1929.613333030438 1191.505733322002 2142.932563076276  4753.603846190849 -1361.731312611446 -444.7323944162732  3411.584738029445 -1487.310276378277 1575.263755954686  4315.43729271299 1377.047357568169 962.9385741537635  4309.440474225105 1378.591353775333 -1133.418481985618  2191.750536122625 1374.586064875975 -2156.425269036894  740.2724818735611 -1374.06552948332 2314.620852783295  3406.841662229547 -1372.801862587997 -1745.535565288295  2374.213467391576 -2694.772922441363 -1782.927402456431  3522.535607070291 -2637.909570897444 -1262.114225556375  2417.430485601115 -3772.461294374458 -1196.169110276539  3402.299191756334 -3536.448363908225 -624.9111176733903  2136.46445115797 -4489.181079951905 -518.761006529092  3038.401317713454 -4025.444214970415 73.2475239178824  1596.524401497153 -4795.959882271422 195.2807430415033  2312.43810211207 -4165.146913378765 797.1790720453263  831.8919800696217 -4670.795248784148 875.9121309812032  1475.769039811443 -3810.3446551735 1437.287515094703  -62.48121806453532 -4095.244205124458 1469.918835576501  3545.320952836484 -3269.012586293925 645.2026541707686  3388.949873984605 1370.390473926234 1609.432888325315  3439.311526053694 2652.099668487111 1176.265066876474  4169.77517958007 2539.413925684445 492.6146550245478  545.5902975139336 -3044.495200876421 1943.535984039044  2018.779133306052 -2667.31439126904 1801.878710729883  2357.662181749718 2538.031913104686 1739.628915813763  2277.122420041028 3711.646983800817 1216.277165054884  4758.337732168337 -1328.041853421517 288.8600408537624  4199.696388194458 -2745.815224870192 -25.660557151495  4336.708858966605 -1380.195779274567 -1105.547269457492  762.8760519577902 1374.920010260965 -2350.17082963127  3373.19207075376 1338.434114970365 -1768.041332420015  3425.02299669074 2641.264258789814 -1326.519389849008  1038.866471027169 -4532.751363945291 -1020.018684118162  -727.4331281453303 -4727.341120023641 855.5826802673132  1017.886364806067 -2765.584015695811 -2028.251308800816  4147.180081492354 2571.89912381145 -649.8332197921409  3104.092169290371 3718.149443991994 -752.070802733902  2206.796380003112 3622.560868897235 -1393.494136172725  1741.900694697269 4509.434731424003 -784.7914871557242  772.5227467620359 4236.92288764575 -1331.987717719388  226.8273237876834 4882.407442291289 -689.9763177637799  -783.8962721344627 4357.871713350509 -1202.847039921  -1299.130938785368 4793.385991147731 -496.2422400809129  -2287.100725067851 4092.377907509 -893.7614212041983  -250.3508556715313 5077.263553393739 49.95283658927178  -1601.139225043945 -3936.660554203765 1384.331866278053  -2208.350045176565 -4349.808509388501 709.6918843396381  -2688.903394094682 4251.697292855309 -209.017517460702  -3547.350238602131 3323.708095397157 -580.6243392447518  -3782.162040951356 3316.309454140014 118.2985924797568  -4431.133800588708 2186.258300044909 -326.6019845921016  -4495.892014810791 2076.162276092467 446.318167829341  -3931.721485418695 2073.218333037305 -1065.296357687816  -3639.60910930607 3071.107346962192 864.4042187988533  -4683.634503093301 906.3204399970311 -645.5204198680607  -4156.430102938185 1708.54611394152 1166.824285472584  -3981.057963453129 582.5334131696685 -1378.234161945814  -4474.152484308872 -658.2612577900244 -960.7913358524208  -3095.539723925028 2578.439771563522 1541.61807778135  -699.4165143257615 -2111.04332061878 2225.070480800525  -3014.967824544774 -3364.365377886879 1158.775957123651  -3575.623702743434 -892.665365478901 -1586.686110638848  -3868.92309003041 -2093.981753403968 -1108.585768951682  -4799.125489711864 575.85857562275 705.3824515743954  -1663.499567469714 3391.803147490362 -1611.719965548609  -3423.074732302945 1101.363965370375 1784.416083112313  1067.631247462421 3428.818566687185 1722.952538704707  -4619.178322640638 -1714.197007297081 -343.907784968887  -2893.151366345639 357.2008013445377 -1928.683492537291  -2272.932648464714 1964.340055555331 2025.175117345923  -2783.93556722079 -2255.432203451991 -1669.627238671764  -2921.323241541998 -3356.966204993258 -1109.096023663512  -2471.145444828141 3784.543870079999 1159.236803694186  -1261.499557937763 -4909.224269945508 180.5008152918803  -2393.749339992758 330.8357862330498 2204.451813144471  -3530.665442174226 -477.2297630430874 1800.301896361501  -1682.27177779025 -3370.302570096193 -1616.756527235349  -1692.795431476289 -4294.816188622794 -996.9785994287489  -1444.35378665417 -2135.795674501507 -2080.59774441128  2535.835933748482 4377.205178277128 -111.1874471869655  -3409.484200492287 -3605.396978743725 495.9467002517315  -4103.775299557076 -2434.546015607478 837.2728711702794  891.9187751782571 4412.629171463267 1134.269228131563  -328.413174098367 3982.524605944448 1538.048371812927  -119.980575280657 3002.526209678499 1991.023158449393  -1362.566320896505 1269.938904268683 2312.606123564864  -2263.529237168229 -2754.724066249772 1794.666617727079  1184.763123987512 3354.24900040552 -1786.907715461844  -2800.181818413566 -4058.673560293281 -495.3844779205539  -360.5925956884152 2573.596510545655 -2105.953718725934  -807.0872275876874 1103.614700710889 -2339.661906735694  -558.9623392048652 4750.700540841975 852.4663055008459  -1065.707137207565 -782.1963054776664 2390.80570344833  -356.8527123400066 -4169.278992692705 -1400.959181419558  -2288.2220478911 -1255.25922863581 2150.742800383522  -3520.525851377608 -2018.392897645166 1521.154915827927  -4378.885403297189 -968.9438121202013 1171.118461076538  -4787.046821823994 -1256.484148925903 425.2245215803649  -4967.862478166643 -163.0467843843101 -134.1688334102492  -1907.565710383941 2184.689429011384 -1969.235539145108  -2900.526466844979 2413.62721893422 -1569.762049681061  -423.4370416193355 -4786.521059784385 -805.1043758451328  -164.1072145562393 3760.158368146196 -1659.749613416079  1992.152249148673 4467.705239190715 615.1807760229062  4295.732178573307 -1317.504693741932 999.9435652345816  260.5347636593627 -1442.583562612623 -2354.074176503546  791.7367121293549 -4959.641002117562 -395.744373003408  -1527.936567293081 3252.064332877346 1774.22500234261  4773.912409638077 1276.687999025243 -452.9733130387098  3190.491184708222 3681.741823490505 584.6888970279049  3766.342829204425 3335.953725975213 -89.34044689267758  -3810.95256535184 -3016.901918224464 -562.7825100046588  -1658.08338511174 4780.025689556001 220.4278980340841  -2780.827645847438 4121.131773606243 499.5942363971395  -263.1620825678968 -3112.684193820015 -1939.295673091904  -1150.582882940377 -567.8720054039273 -2339.834099714035  -2439.990103982538 -910.5456203223558 -2039.555084898335  1156.259586715316 4939.754046531869 -145.6951285296092  134.7120953607382 -5051.642905586179 274.4431945940474  2752.492937763215 -3210.353169758913 1294.114514945537  4778.240633186456 1292.414585141591 254.3953275620871  2171.822663186792 -1362.660248717985 2060.645608108508  -4224.747498848253 -2705.234399189165 129.6053334309729  -901.0344378981883 -3359.181069589398 1819.357630930593  2440.740640598171 2463.592688922502 -1841.304153984039  -4282.788390614563 405.2979603645518 1335.565919507005  1127.171004739186 -3789.921230189801 -1575.987362384625  1213.630140113455 2444.283104877534 2044.907960308931  711.435519193011 4917.891251808012 510.7392169373037  -3101.876186953811 3184.14072059437 -1105.396036920605  4179.72220949914 -2447.512143018885 -717.2001967301215  -87.89430743995182 1325.36203979947 2368.330859758003  3776.613368145681 -2381.531365391752 1055.080927626298  -4846.168964944839 1209.050987099886 22.11833288146044  -2585.004986799601 -4349.708328844488 65.66099346991221  -1578.112449595017 -4749.418643850253 -386.122257558124  4480.07793251484 2241.317328114979 -90.16881155868755  -1123.302041813796 2509.485356003419 2093.767514177231  1395.958413721103 2278.619300484137 -2121.338922106001  -1669.907321490367 374.2488722747864 -2262.252453491608  -1830.965125292895 4449.101748096108 819.7001145345009  4243.465386862913 -2274.616936534616 609.3131839462608  -340.3350800433842 -5047.409764006253 -243.9681113308325  -3190.803582313772 1320.786489063585 -1712.024934008351  -2175.945327504369 1123.69512977788 -2091.023373008488  -1402.258998942466 4093.149368187077 1323.821240921473  -3513.512955734376 -3599.52418842047 -81.81306761659482  -0.02544759885614951 0.1496355215112485 -0.0364765089348387  -1593.833560753486 -1998.652655959507 103.4396088641132  2408.675728810565 779.1785868032749 -64.9977560982488  -963.3363310635988 2101.364597803758 562.1787981599806  1792.217698382066 -1489.07314307511 450.5953387100164  -1162.048267639551 217.9380237361091 -1061.16738508659  -2477.131818560067 396.4773889366542 56.2296226336632  476.41010584913 2376.762978452377 -480.2228991406437  1678.192631708846 -1171.364126683146 -772.6231048391649  -1308.5597053535 -222.4709813023326 1087.738944576465  1242.732411047059 1767.656536293968 825.0411950631734  -455.1693555823507 -2018.066917387006 -916.8447050963048  412.3813390520358 -2913.518097841302 -4.328272731492664  1001.603767726891 774.2512124130571 -1236.959365395
[...]
<PointData  Vectors="Centrifugal"> 
<DataArray  type="Float64"  Name="Centrifugal"  NumberOfComponents="3" format="ascii">-1.8831704132698288e-05 -2.2646924307574243e-09 1.8831704132698254e-05  1.8831654310144511e-05 2.2281786563985976e-10 -1.8831654310144511e-05  2.9864100929780623e-05 2.8146918255891624e-09 -2.9864100929780610e-05  3.7960091976692188e-05 2.4373032980592271e-09 -3.7960091976692155e-05  4.2299064297514384e-05 -2.3360173121090112e-10 -4.2299064297514391e-05  4.2456229011555767e-05 5.6479323158978229e-10 -4.2456229011555780e-05  3.8459177617771198e-05 -8.4960665472306967e-10 -3.8459177617771232e-05  3.0732643576455444e-05 -2.1147980982185652e-09 -3.0732643576455471e-05  2.0039847435228499e-05 -1.2263917523459790e-09 -2.0039847435228469e-05  7.4037248002594429e-06 -6.2932950956253132e-11 -7.4037248002594412e-06  -5.9831911903357606e-06 -1.1657816678855688e-10 5.9831911903357632e-06  3.1523483842688133e-05 -2.3256616905031811e-05 -3.1523483842688133e-05  -1.7847228788834325e-06 1.8049876628502905e-05 1.7847228788834315e-06  3.9429969270940810e-05 -2.0646721409418570e-05 -3.9429969270940783e-05  1.3807524321881770e-05 -2.2543791293078470e-05 -1.3807524321881763e-05  2.5358004030143207e-05 2.0879749274647713e-05 -2.5358004030143197e-05  4.1305641900979797e-05 2.0896321226485256e-05 -4.1305641900979803e-05  3.3072211595294940e-05 2.0816491674609455e-05 -3.3072211595294926e-05  -1.2104616027799535e-05 -2.0810427237788973e-05 1.2104616027799533e-05  3.9131764603605028e-05 -2.0797915941021296e-05 -3.9131764603604994e-05  3.1592705318103529e-05 -4.0819731067364574e-05 -3.1592705318103515e-05  3.6316961049451760e-05 -3.9974272267860561e-05 -3.6316961049451753e-05  2.7436746815419919e-05 -5.7159549345925119e-05 -2.7436746815419919e-05  3.0548185260715358e-05 -5.3601923944460244e-05 -3.0548185260715358e-05  2.0142364688963654e-05 -6.8029272692657824e-05 -2.0142364688963667e-05  2.2468020198751091e-05 -6.1016955409292824e-05 -2.2468020198751094e-05  1.0608964324292618e-05 -7.2679253589329779e-05 -1.0608964324292613e-05  1.1441583949501344e-05 -6.3126036504857139e-05 -1.1441583949501334e-05  -3.7662752694475681e-07 -7.0773859898038999e-05 3.7662752694476041e-07  2.0716956543568395e-07 -5.7733403828676165e-05 -2.0716956543568442e-07  -1.1689740192891603e-05 -6.2039888076974555e-05 1.1689740192891623e-05  2.1946918795961571e-05 -4.9558323297847121e-05 -2.1946918795961567e-05  1.3373359209045100e-05 2.0771939445198183e-05 -1.3373359209045115e-05  1.7080379393586316e-05 4.0203404167657486e-05 -1.7080379393586320e-05  2.7849029280003505e-05 3.8504535687483158e-05 -2.7849029280003491e-05  -1.0719819260390864e-05 -4.6113717091462752e-05 1.0719819260390873e-05  1.5178351425510986e-06 -4.0411786116531635e-05 -1.5178351425510973e-06  4.5635241774840204e-06 3.8458718541405544e-05 -4.5635241774840212e-06  7.9685071587634756e-06 5.6249031170133094e-05 -7.9685071587634807e-06  3.3871958316083892e-05 -2.0138131172454825e-05 -3.3871958316083960e-05  3.2030336649309175e-05 -4.1630616944470479e-05 -3.2030336649309168e-05  4.1300007401843272e-05 -2.0918989007460413e-05 -4.1300007401843259e-05  2.3747484365943792e-05 2.0819657918440178e-05 -2.3747484365943789e-05  3.9048208285962204e-05 2.0276936383197398e-05 -3.9048208285962204e-05  3.6069066079106281e-05 4.0023998712309209e-05 -3.6069066079106308e-05  1.5647601583909628e-05 -6.8676217828616653e-05 -1.5647601583909631e-05  -1.2032328011282985e-05 -7.1625986120044759e-05 1.2032328011282985e-05  2.3202598641344150e-05 -4.1884382506474304e-05 -2.3202598641344150e-05  3.6388459582684556e-05 3.8987281502133532e-05 -3.6388459582684583e-05  2.9255272785769525e-05 5.6350966551671918e-05 -2.9255272785769539e-05  2.7346471766940792e-05 5.4884008180880634e-05 -2.7346471766940799e-05  1.9179704135016035e-05 6.8330170915651577e-05 -1.9179704135015994e-05  1.6011752849367204e-05 6.4188872148426601e-05 -1.6011752849367204e-05  6.9777597419831544e-06 7.3979732611369875e-05 -6.9777597419831587e-06  3.2383756226144962e-06 6.6027757416752821e-05 -3.2383756226144933e-06  -6.0599021305834127e-06 7.2638536496464040e-05 6.0599021305834118e-06  -1.0510591301113963e-05 6.2021458683347985e-05 1.0510591301113961e-05  -2.2772105080390605e-06 7.6936616648967400e-05 2.2772105080390618e-06  -2.2687897861011080e-05 -5.9638633466949977e-05 2.2687897861011090e-05  -2.2141311385035510e-05 -6.5914688663478178e-05 2.2141311385035517e-05  -1.8782590778713921e-05 6.4441465987072200e-05 1.8782590778713941e-05  -2.2456460401604075e-05 5.0385530155201369e-05 2.2456460401604068e-05  -2.9569310630982766e-05 5.0273747986908243e-05 2.9569310630982787e-05  -3.1099723405035515e-05 3.3150661082160252e-05 3.1099723405035515e-05  -3.7485582318271440e-05 3.1476960235879093e-05 3.7485582318271447e-05  -2.1664886368308426e-05 3.1431505515908286e-05 2.1664886368308440e-05  -3.4173447275018271e-05 4.6545904288092740e-05 3.4173447275018258e-05  -3.0581134340062103e-05 1.3742555062782333e-05 3.0581134340062082e-05  -4.0399993386666245e-05 2.5895113210752003e-05 4.0399993386666265e-05  -1.9639079761014077e-05 8.8295759418624608e-06 1.9639079761014077e-05  -2.6579930506364263e-05 -9.9811130499531995e-06 2.6579930506364270e-05  -3.5213438333017991e-05 3.9065558550046756e-05 3.5213438333018032e-05  -2.2305421886431864e-05 -3.1967767286403434e-05 2.2305421886431867e-05  -3.1680021803089446e-05 -5.0979447578634136e-05 3.1680021803089467e-05  -1.4963980230768993e-05 -1.3530766188055381e-05 1.4963980230769000e-05  -2.0856809647434767e-05 -3.1745808413756444e-05 2.0856809647434795e-05  -4.1762325389751924e-05 8.7287405867850585e-06 4.1762325389751931e-05  -2.9053899289890440e-07 5.1391415789863737e-05 2.9053899289890578e-07  -3.9551938777282454e-05 1.6684992456337142e-05 3.9551938777282515e-05  -5.0742519257155250e-06 5.1945193426914857e-05 5.0742519257155309e-06  -3.2396692353896219e-05 -2.5993779583022669e-05 3.2396692353896226e-05  -7.1618805794925623e-06 5.4112409411027054e-06 7.1618805794925750e-06  -3.2680883660994907e-05 2.9750006114952408e-05 3.2680883660994928e-05  -8.3293463855077429e-06 -3.4180230846502194e-05 8.3293463855077362e-06  -1.3668739638356184e-05 -5.0880022724627207e-05 1.3668739638356203e-05  -2.7561942083383539e-05 5.7341434404307419e-05 2.7561942083383549e-05  -1.0932984983262752e-05 -7.4391416134404672e-05 1.0932984983262765e-05  -3.4971111435149975e-05 5.0100502211399039e-06 3.4971111435149893e-05  -4.0489531976090903e-05 -7.2305152738409490e-06 4.0489531976090869e-05  -3.9329391990428091e-07 -5.1064668728004874e-05 3.9329391990428441e-07  -5.2193161472708188e-06 -6.5081468586770307e-05 5.2193161472708188e-06  4.9751926405411937e-06 -3.2352317420449745e-05 -4.9751926405411827e-06  2.0062830263485945e-05 6.6341960336733821e-05 -2.0062830263485942e-05  -2.9619452393914802e-05 -5.4646766341994154e-05 2.9619452393914876e-05  -3.7488840871180910e-05 -3.6902065669577361e-05 3.7488840871180910e-05  -1.8956018335002107e-06 6.6859430242765492e-05 1.8956018335002133e-06  -1.4224781431097188e-05 6.0329511162830845e-05 1.4224781431097193e-05  -1.6120304084028453e-05 4.5475780256349020e-05 1.6120304084028463e-05  -2.7996157179037585e-05 1.9227890260067096e-05 2.7996157179037582e-05  -3.0844245610429589e-05 -4.1725994040578567e-05 3.0844245610429603e-05  2.2614438824789644e-05 5.0806242739135237e-05 -2.2614438824789647e-05  -1.7441723557981286e-05 -6.1516276487477185e-05 1.7441723557981286e-05  1.3368689908018960e-05 3.8979305541280523e-05 -1.3368689908018965e-05  1.1792780736641991e-05 1.6714255997581890e-05 -1.1792780736641983e-05  -1.0732818689014510e-05 7.1981221443282481e-05 1.0732818689014510e-05  -2.6352523072098487e-05 -1.1841650109575008e-05 2.6352523072098518e-05  7.9880844699388802e-06 -6.3163600314611882e-05 -7.9880844699388836e-06  -3.3759770000781696e-05 -1.9011717522393438e-05 3.3759770000781682e-05  -3.8279902740810311e-05 -3.0581538700929965e-05 3.8279902740810284e-05  -4.2121733301284392e-05 -1.4686459899333810e-05 4.2121733301284406e-05  -3.9536634096029470e-05 -1.9051135087644251e-05 3.9536634096029477e-05  -3.6644134620282841e-05 -2.4739258586664283e-06 3.6644134620282861e-05  6.1111981745010956e-07 3.3097681970304669e-05 -6.1111981745011337e-07  -9.9794783813931251e-06 3.6579720102191943e-05 9.9794783813931149e-06  2.9312861913160168e-06 -7.2525253974820640e-05 -2.9312861913160184e-06  1.1428323085854363e-05 5.6960841148814748e-05 -1.1428323085854360e-05  1.0403882198962728e-05 6.7709448349109776e-05 -1.0403882198962738e-05  2.4924787681636324e-05 -1.9976323458465151e-05 -2.4924787681636324e-05  1.9979186867631635e-05 -2.1845726034717527e-05 -1.9979186867631632e-05  9.0148119600801588e-06 -7.5152082821695413e-05 -9.0148119600801537e-06  -2.5116616726565455e-05 4.9258040662819711e-05 2.5116616726565462e-05  3.9646670110889771e-05 1.9357542864659920e-05 -3.9646670110889771e-05  1.9719419881949626e-05 5.5810916843151024e-05 -1.9719419881949602e-05  2.9227795955075193e-05 5.0573617069419594e-05 -2.9227795955075223e-05  -2.4591581917233383e-05 -4.5737092023269334e-05 2.4591581917233386e-05  -1.4242539223361744e-05 7.2436822890553532e-05 1.4242539223361754e-05  -2.4880466742107416e-05 6.2457100780993944e-05 2.4880466742107388e-05  1.2825002138292078e-05 -4.7145780970225077e-05 -1.2825002138292071e-05  9.1966045409767553e-06 -8.6021723076845780e-06 -9.1966045409767553e-06  -2.8759784285259606e-06 -1.3797004527833749e-05 2.8759784285259623e-06  9.8706703908028226e-06 7.4854649187035467e-05 -9.8706703908028108e-06  -1.0700032955537403e-06 -7.6546084704739488e-05 1.0700032955537505e-06  1.0973993770174795e-05 -4.8655304728425545e-05 -1.0973993770174795e-05  3.4285836508315620e-05 1.9598669478723162e-05 -3.4285836508315627e-05  6.8453503109415077e-07 -2.0644698386259435e-05 -6.8453503109415289e-07  -3.3013720951865994e-05 -4.1013347444176296e-05 3.3013720951866000e-05  -2.0714622986249490e-05 -5.0879467696357302e-05 2.0714622986249487e-05  3.2543009371216019e-05 3.7317557527335959e-05 -3.2543009371216019e-05  -4.2646278736469742e-05 6.1412874692610413e-06 4.2646278736469789e-05  2.0564077808166958e-05 -5.7410495249599808e-05 -2.0564077808166968e-05  -6.4448711157621775e-06 3.7024251253673482e-05 6.4448711157621808e-06  1.4971818670185983e-06 7.4521862134661066e-05 -1.4971818670185983e-06  -1.5065728008760740e-05 4.8263341613598841e-05 1.5065728008760745e-05  3.7149151221330501e-05 -3.7101994345192680e-05 -3.7149151221330508e-05  -1.8782989294472728e-05 2.0068750068361102e-05 1.8782989294472735e-05  2.0565855793359701e-05 -3.6103527604065658e-05 -2.0565855793359701e-05  -3.6911768089952975e-05 1.8333066446994048e-05 3.6911768089952988e-05  -2.0088864859763190e-05 -6.5923795909128370e-05 2.0088864859763190e-05  -9.0134274861310647e-06 -7.1973259489971255e-05 9.0134274861310546e-06  3.4649539132591089e-05 3.3984560861896428e-05 -3.4649539132591096e-05  -2.4502756071961661e-05 3.8004213502417538e-05 2.4502756071961671e-05  2.6777540041654694e-05 3.4509329849086282e-05 -2.6777540041654683e-05  4.6688111651506972e-06 5.6672926302140864e-06 -4.6688111651506946e-06  -2.0119868384042308e-05 6.7414778402473895e-05 2.0119868384042308e-05  2.7516867106058531e-05 -3.4488746186054649e-05 -2.7516867106058534e-05  -7.1842311641268109e-07 -7.6482073911181744e-05 7.1842311641268067e-07  -1.1084021162811745e-05 2.0017652507387438e-05 1.1084021162811750e-05  -4.8160950678642567e-07 1.7024721190480682e-05 4.8160950678642376e-07  -2.0718943347406606e-05 6.2010602158279562e-05 2.0718943347406606e-05  -2.6005484887423388e-05 -5.4564775814449841e-05 2.6005484887423381e-05  5.3919972341456754e-11 1.5959048627637504e-09 -5.3919972345611644e-11  -1.2847597316587999e-05 -3.0242419747159166e-05 1.2847597316587994e-05  1.8719321809707190e-05 1.1791245318866771e-05 -1.8719321809707183e-05  -1.1584154542422419e-05 3.1793900040268835e-05 1.1584154542422417e-05  1.0111536275679758e-05 -2.2532334812864608e-05 -1.0111536275679781e-05  -6.6829309438422098e-07 3.2978543968287497e-06 6.6829309438422480e-07  -1.9170509710688168e-05 6.0002508436701856e-06 1.9170509710688199e-05  7.2742109327477370e-06 3.5961449206193154e-05 -7.2742109327477404e-06  1.8601085917039271e-05 -1.7722645413386829e-05 -1.8601085917039295e-05  -1.8216315285858649e-05 -3.3663780523204407e-06 1.8216315285858635e-05  3.0908299209744481e-06 2.6749068022813386e-05 -3.0908299209744464e-06  3.5680468780484113e-06 -3.0534601681672871e-05 -3.5680468780484096e-06  3.1532766482921433e-06 -4.4088820636998651e-05 -3.1532766482921446e-06  1.7036700715561795e-05 1.1713812076302360e-05 -1.7036700715561805e-05  -1.0130872827769624e-05 -3.4341254389685622e-05 1.0130872827769649e-05  -3.2280649392025650e-06 -4.1880795429989139e-06 3.2280649392025747e-06  -9.5044824407559532e-06 3.3580959625039832e-05 9.5044824407559532e-06  -1.3926520700721810e-05 -1.6030364374909461e-05 1.3926520700721827e-05  1.2828079075060363e-05 2.0123742314355357e-06 -1.2828079075060383e-05  -1.3196980850621605e-05 2.0833788501361818e-05 1.3196980850621610e-05  1.3018446245681637e-06 4.7164888178844651e-05 -1.3018446245681614e-06  2.2258678405256270e-05 2.7899814180765130e-05 -2.2258678405256287e-05  1.6033131236728184e-05 3.9159600988477031e-05 -1.6033131236728181e-05  -2.5408139346890080e-05 1.7729818279949255e-05 2.5408139346890117e-05  2.4380360026158002e-05 -1.4698134394683434e-05 -2.4380360026158063e-05  4.7121032192685366e-06 3.1015494938055513e-05 -4.7121032192685282e-06  -2.6580420404618784e-05 -1.6287501700716075e-05 2.6580420404618791e-05  2.8183044527518494e-05 2.7896331154384102e-06 -2.8183044527518507e-05  1.7846054404917598e-05 -3.8537418619781872e-05 -1.7846054404917571e-05  -1.4575274902228812e-05 1.4221266238363078e-05 1.4575274902228789e-05  1.6233386792830541e-05 -1.5155215747611474e-05 -1.6233386792830504e-05  -4.3754327699811558e-06 -4.8428018662611981e-05 4.3754327699811507e-06  -1.0253491081408094e-05 -5.0984011325675998e-05 1.0253491081408108e-05  2.8739600991421937e-06 -4.4951447905888245e-05 -2.8739600991421903e-06  -2.1404057551221391e-05 3.8364385839559020e-05 2.1404057551221357e-05  1.3313217694811967e-05 -4.3801081775433731e-05 -1.3313217694811965e-05  -3.8316708084089230e-06 5.1667079084570637e-05 3.8316708084089213e-06  -2.1477239665372248e-06 -1.9505044792627022e-05 2.1477239665372291e-06  1.7110103681147168e-05 2.5063208082570577e-05 -1.7110103681147185e-05  1.2545336645045925e-06 2.3207182945795340e-05 -1.2545336645045963e-06  1.1544426128093574e-05 1.2496975719914455e-05 -1.1544426128093557e-05  </DataArray> 
</PointData> 
</Piece>
</UnstructuredGrid>
</VTKFile>