<?xml version="1.0"?>
<VTKFile type="UnstructuredGrid"  version="0.1"  >
<UnstructuredGrid>
<Piece  NumberOfPoints="201" NumberOfCells="657">
<Points>
<DataArray  type="Float64"  NumberOfComponents="3"  format="ascii">-12.25714867658101 -0.2134616168917391 2448.870395217478  12.21171936158181 0.02224604904061407 -2448.902408665886  1553.237432200541 0.2653738151044477 -2367.898566161652  2943.176090527531 0.2285243102205675 -2051.601975606775  4045.280477814385 -0.02321036999918375 -1526.410583477029  4750.971514120882 0.05177993279627812 -844.4948894976778  4990.872598952001 -0.08131495697875772 -81.01249557536912  4741.670400581545 -0.2007194663887081 683.1738338976223  4028.474075230458 -0.116981074987638 1372.706161604679  2921.59102383703 -0.008264759974775842 1925.105679505168  1529.540117329589 -0.01196291127278468 2294.845535832278  1963.775381268388 -1535.720132218772 -2179.43244503321  1929.613333030438 1191.505733322002 2142.932563076276  4753.603846190849 -1361.731312611446 -444.7323944162732  3411.584738029445 -1487.310276378277 1575.263755954686  4315.43729271299 1377.047357568169 962.9385741537635  4309.440474225105 1378.591353775333 -1133.418481985618  2191.750536122625 1374.586064875975 -2156.425269036894  740.2724818735611 -1374.06552948332 2314.620852783295  3406.841662229547 -1372.801862587997 -1745.535565288295  2374.213467391576 -2694.772922441363 -1782.927402456431  3522.535607070291 -2637.909570897444 -1262.114225556375  2417.430485601115 -3772.461294374458 -1196.169110276539  3402.299191756334 -3536.448363908225 -624.9111176733903  2136.46445115797 -4489.181079951905 -518.761006529092  3038.401317713454 -4025.444214970415 73.2475239178824  1596.524401497153 -4795.959882271422 195.2807430415033  2312.43810211207 -4165.146913378765 797.1790720453263  831.8919800696217 -4670.795248784148 875.9121309812032  1475.769039811443 -3810.3446551735 1437.287515094703  -62.48121806453532 -4095.244205124458 1469.918835576501  3545.320952836484 -3269.012586293925 645.2026541707686  3388.949873984605 1370.390473926234 1609.432888325315  3439.311526053694 2652.099668487111 1176.265066876474  4169.77517958007 2539.413925684445 492.6146550245478  545.5902975139336 -3044.495200876421 1943.535984039044  2018.779133306052 -2667.31439126904 1801.878710729883  2357.662181749718 2538.031913104686 1739.628915813763  2277.122420041028 3711.646983800817 1216.277165054884  4758.337732168337 -1328.041853421517 288.8600408537624  4199.696388194458 -2745.815224870192 -25.660557151495  4336.708858966605 -1380.195779274567 -1105.547269457492  762.8760519577902 1374.920010260965 -2350.17082963127  3373.19207075376 1338.434114970365 -1768.041332420015  3425.02299669074 2641.264258789814 -1326.519389849008  1038.866471027169 -4532.751363945291 -1020.018684118162  -727.4331281453303 -4727.341120023641 855.5826802673132  1017.886364806067 -2765.584015695811 -2028.251308800816  4147.180081492354 2571.89912381145 -649.8332197921409  3104.092169290371 3718.149443991994 -752.070802733902  2206.796380003112 3622.560868897235 -1393.494136172725  1741.900694697269 4509.434731424003 -784.7914871557242  772.5227467620359 4236.92288764575 -1331.987717719388  226.8273237876834 4882.407442291289 -689.9763177637799  -783.8962721344627 4357.871713350509 -1202.847039921  -1299.130938785368 4793.385991147731 -496.2422400809129  -2287.100725067851 4092.377907509 -893.7614212041983  -250.3508556715313 5077.263553393739 49.95283658927178  -1601.139225043945 -3936.660554203765 1384.331866278053  -2208.350045176565 -4349.808509388501 709.6918843396381  -2688.903394094682 4251.697292855309 -209.017517460702  -3547.350238602131 3323.708095397157 -580.6243392447518  -3782.162040951356 3316.309454140014 118.2985924797568  -4431.133800588708 2186.258300044909 -326.6019845921016  -4495.892014810791 2076.162276092467 446.318167829341  -3931.721485418695 2073.218333037305 -1065.296357687816  -3639.60910930607 3071.107346962192 864.4042187988533  -4683.634503093301 906.3204399970311 -645.5204198680607  -4156.430102938185 1708.54611394152 1166.824285472584  -3981.057963453129 582.5334131696685 -1378.234161945814  -4474.152484308872 -658.2612577900244 -960.7913358524208  -3095.539723925028 2578.439771563522 1541.61807778135  -699.4165143257615 -2111.04332061878 2225.070480800525  -3014.967824544774 -3364.365377886879 1158.775957123651  -3575.623702743434 -892.665365478901 -1586.686110638848  -3868.92309003041 -2093.981753403968 -1108.585768951682  -4799.125489711864 575.85857562275 705.3824515743954  -1663.499567469714 3391.803147490362 -1611.719965548609  -3423.074732302945 1101.363965370375 1784.416083112313  1067.631247462421 3428.818566687185 1722.952538704707  -4619.178322640638 -1714.197007297081 -343.907784968887  -2893.151366345639 357.2008013445377 -1928.683492537291  -2272.932648464714 1964.340055555331 2025.175117345923  -2783.93556722079 -2255.432203451991 -1669.627238671764  -2921.323241541998 -3356.966204993258 -1109.096023663512  -2471.145444828141 3784.543870079999 1159.236803694186  -1261.499557937763 -4909.224269945508 180.5008152918803  -2393.749339992758 330.8357862330498 2204.451813144471  -3530.665442174226 -477.2297630430874 1800.301896361501  -1682.27177779025 -3370.302570096193 -1616.756527235349  -1692.795431476289 -4294.816188622794 -996.9785994287489  -1444.35378665417 -2135.795674501507 -2080.59774441128  2535.835933748482 4377.205178277128 -111.1874471869655  -3409.484200492287 -3605.396978743725 495.9467002517315  -4103.775299557076 -2434.546015607478 837.2728711702794  891.9187751782571 4412.629171463267 1134.269228131563  -328.413174098367 3982.524605944448 1538.048371812927  -119.980575280657 3002.526209678499 1991.023158449393  -1362.566320896505 1269.938904268683 2312.606123564864  -2263.529237168229 -2754.724066249772 1794.666617727079  1184.763123987512 3354.24900040552 -1786.907715461844  -2800.181818413566 -4058.673560293281 -495.3844779205539  -360.5925956884152 2573.596510545655 -2105.953718725934  -807.0872275876874 1103.614700710889 -2339.661906735694  -558.9623392048652 4750.700540841975 852.4663055008459  -1065.707137207565 -782.1963054776664 2390.80570344833  -356.8527123400066 -4169.278992692705 -1400.959181419558  -2288.2220478911 -1255.25922863581 2150.742800383522  -3520.525851377608 -2018.392897645166 1521.154915827927  -4378.885403297189 -968.9438121202013 1171.118461076538  -4787.046821823994 -1256.484148925903 425.2245215803649  -4967.862478166643 -163.0467843843101 -134.1688334102492  -1907.565710383941 2184.689429011384 -1969.235539145108  -2900.526466844979 2413.62721893422 -1569.762049681061  -423.4370416193355 -4786.521059784385 -805.1043758451328  -164.1072145562393 3760.158368146196 -1659.749613416079  1992.152249148673 4467.705239190715 615.1807760229062  4295.732178573307 -1317.504693741932 999.9435652345816  260.5347636593627 -1442.583562612623 -2354.074176503546  791.7367121293549 -4959.641002117562 -395.744373003408  -1527.936567293081 3252.064332877346 1774.22500234261  4773.912409638077 1276.687999025243 -452.9733130387098  3190.491184708222 3681.741823490505 584.6888970279049  3766.342829204425 3335.953725975213 -89.34044689267758  -3810.95256535184 -3016.901918224464 -562.7825100046588  -1658.08338511174 4780.025689556001 220.4278980340841  -2780.827645847438 4121.131773606243 499.5942363971395  -263.1620825678968 -3112.684193820015 -1939.295673091904  -1150.582882940377 -567.8720054039273 -2339.834099714035  -2439.990103982538 -910.5456203223558 -2039.555084898335  1156.259586715316 4939.754046531869 -145.6951285296092  134.7120953607382 -5051.642905586179 274.4431945940474  2752.492937763215 -3210.353169758913 1294.114514945537  4778.240633186456 1292.414585141591 254.3953275620871  2171.822663186792 -1362.660248717985 2060.645608108508  -4224.747498848253 -2705.234399189165 129.6053334309729  -901.0344378981883 -3359.181069589398 1819.357630930593  2440.740640598171 2463.592688922502 -1841.304153984039  -4282.788390614563 405.2979603645518 1335.565919507005  1127.171004739186 -3789.921230189801 -1575.987362384625  1213.630140113455 2444.283104877534 2044.907960308931  711.435519193011 4917.891251808012 510.7392169373037  -3101.876186953811 3184.14072059437 -1105.396036920605  4179.72220949914 -2447.512143018885 -717.2001967301215  -87.89430743995182 1325.36203979947 2368.330859758003  3776.613368145681 -2381.531365391752 1055.080927626298  -4846.168964944839 1209.050987099886 22.11833288146044  -2585.004986799601 -4349.708328844488 65.66099346991221  -1578.112449595017 -4749.418643850253 -386.122257558124  4480.07793251484 2241.317328114979 -90.16881155868755  -1123.302041813796 2509.485356003419 2093.767514177231  1395.958413721103 2278.619300484137 -2121.338922106001  -1669.907321490367 374.2488722747864 -2262.252453491608  -1830.965125292895 4449.101748096108 819.7001145345009  4243.465386862913 -2274.616936534616 609.3131839462608  -340.3350800433842 -5047.409764006253 -243.9681113308325  -3190.803582313772 1320.786489063585 -1712.024934008351  -2175.945327504369 1123.69512977788 -2091.023373008488  -1402.258998942466 4093.149368187077 1323.821240921473  -3513.512955734376 -3599.52418842047 -81.81306761659482  -0.02544759885614951 0.1496355215112485 -0.0364765089348387  -1593.833560753486 -1998.652655959507 103.4396088641132  2408.675728810565 779.1785868032749 -64.9977560982488  -963.3363310635988 2101.364597803758 562.1787981599806  1792.217698382066 -1489.07314307511 450.5953387100164  -1162.048267639551 217.9380237361091 -1061.16738508659  -2477.131818560067 396.4773889366542 56.2296226336632  476.41010584913 2376.762978452377 -480.2228991406437  1678.192631708846 -1171.364126683146 -772.6231048391649  -1308.5597053535 -222.4709813023326 1087.738944576465  1242.732411047059 1767.656536293968 825.0411950631734  -455.1693555823507 -2018.066917387006 -916.8447050963048  412.3813390520358 -2913.518097841302 -4.328272731492664  1001.603767726891 774.2512124130571 -1236.959365395
[...]
<PointData  Vectors="Velocity"> 
<DataArray  type="Float64"  Name="Velocity"  NumberOfComponents="3" format="ascii">-2.4868559869950923e-05 -4.3877429193336594e-07 -1.0417778480139073e-04  2.4776974734581296e-05 5.1546141980547024e-08 1.0413269420803437e-04  1.5580224005981163e-05 5.4578660995708026e-07 1.8196050861087355e-05  6.8698244641081200e-06 4.6400995888200285e-07 -6.1921994868693739e-05  -1.8682898893792173e-06 -5.3358032804827569e-08 -1.1912344279157040e-04  -1.1298651622139830e-05 9.9543550738855064e-08 -1.4981293326817176e-04  -2.1181165219886640e-05 -1.7298447431424717e-07 -1.6837044229257546e-04  -3.0183443802692986e-05 -4.1912603994548809e-07 -1.8550118099365642e-04  -3.5939682817015118e-05 -2.4700128160610138e-07 -2.0051275023547777e-04  -3.6859590692314812e-05 -2.7963730778926891e-08 -2.0139782980853617e-04  -3.2471688877365485e-05 -2.9203666230816403e-08 -1.7041932022299555e-04  1.1593868171678489e-05 -5.9478226842259754e-05 -1.4073784355761306e-05  -3.1784362816449328e-05 4.3489703632533745e-05 -1.7431161913172526e-04  -1.3914486387698063e-05 -4.1641995535042251e-05 -1.5415467834719912e-04  -3.2342937597488170e-05 -4.8580390181532082e-05 -1.8968972742421450e-04  -2.9361836298765711e-05 4.1751063831141179e-05 -1.8304020052846952e-04  -5.0108114024883560e-06 4.4841569284287530e-05 -1.3321749434793345e-04  1.0849053709103041e-05 5.3213366410413113e-05 -2.5666250815513545e-05  -2.6578452043660122e-05 -5.2381932638620573e-05 -1.2912768165218607e-04  3.0265875370931761e-06 -4.9389666205148838e-05 -9.1133493574931777e-05  7.7913518408653893e-06 -9.9625830674518600e-05 -5.0691376720944187e-05  1.3571731065178863e-06 -9.0455996176346762e-05 -1.0561297503225756e-04  5.2367501083867123e-06 -1.3267801490288590e-04 -6.8063098039961012e-05  -3.9884562286542786e-07 -1.1619657719284050e-04 -1.0785250198389873e-04  3.1230528847087925e-06 -1.5337862045923206e-04 -6.6569767476153029e-05  -3.0349613518012265e-06 -1.3078437263953530e-04 -1.0349749551343756e-04  -3.7417640362365051e-07 -1.6339748761929715e-04 -5.5639407561524081e-05  -7.3329588011641837e-06 -1.3910574687438576e-04 -9.4322151352087190e-05  -4.8308146436365591e-06 -1.6296401790978288e-04 -4.1660860687552578e-05  -1.2990334268201395e-05 -1.3407192688987861e-04 -8.9401196283480375e-05  -9.8334694352736011e-06 -1.4865432181786534e-04 -2.7491973995010060e-05  -1.3452187674923641e-05 -1.0299443305757061e-04 -1.3689302716712659e-04  -3.3203041347186302e-05 4.4605102694304528e-05 -1.9195334702159952e-04  -2.2282678968845181e-05 8.4668584954295624e-05 -1.5903145616454832e-04  -1.7526948206534108e-05 7.6916636949541010e-05 -1.5467295214592890e-04  -1.7939444240313950e-05 -1.1411609412819115e-04 -8.3646308408648194e-05  -2.3593427206480846e-05 -9.5052844863576896e-05 -1.4277095777269651e-04  -2.5164184735141848e-05 8.7929319718341338e-05 -1.5244847098159952e-04  -1.3284333829948965e-05 1.2567558797312798e-04 -1.1140988431641132e-04  -2.2814852302158614e-05 -3.9626858921024647e-05 -1.6966915911179387e-04  -1.1096193845682177e-05 -8.4740841183632073e-05 -1.4241316217947992e-04  -5.6778016223185270e-06 -4.5628376316656992e-05 -1.3481321677632238e-04  1.9233828634469045e-05 5.4065930617740202e-05 5.5065764977720609e-05  3.5338703048722555e-06 4.8290579510252170e-05 -8.9461642907982700e-05  2.2450863176975487e-06 9.1064551919999443e-05 -1.0095909563523344e-04  5.6258945925811532e-06 -1.6079153618727841e-04 -2.2581394295364391e-05  -5.2209334429031695e-06 -1.6701964099746208e-04 1.5264550358961656e-05  1.3429526539846068e-05 -1.0578970884109445e-04 1.7818597440131737e-05  -5.4426527047100889e-06 8.2269607723174513e-05 -1.3256869818772211e-04  1.8066592507969299e-06 1.2439051613501311e-04 -9.7027606731471479e-05  6.7459987386254887e-06 1.2930970300941889e-04 -5.6696272753545817e-05  4.6931379393374457e-06 1.5675103740318093e-04 -5.0607076290674982e-05  8.0114648043018742e-06 1.5261631410837267e-04 -5.3423287950694559e-06  3.7203012682858242e-06 1.7059947415638319e-04 7.4237792022095721e-08  7.9221317505981358e-06 1.5406997009088458e-04 5.0524521738528336e-05  1.6853840189038608e-06 1.6407079419940301e-04 5.0125443765528466e-05  8.0800189207561588e-06 1.3743426774061939e-04 9.7311709573915281e-05  -6.3836131654650742e-07 1.7546745529502337e-04 8.0208823394679291e-06  -7.8418930692854277e-06 -1.4237910683362944e-04 3.4653076767054886e-05  -4.3166082680725943e-06 -1.4973968436836214e-04 6.7613516125334479e-05  2.2988890866836646e-06 1.4035584678742563e-04 9.3777872224494067e-05  1.2531390878454970e-05 1.0559783287991117e-04 1.3392986049873458e-04  6.1979638007518067e-06 1.0519640662887165e-04 1.2576998991297692e-04  1.8624889744872322e-05 6.5801350586515753e-05 1.5926287802202070e-04  1.0734309135347835e-05 6.4398165203401403e-05 1.4552529604474755e-04  2.6361044914672036e-05 6.4669655339103310e-05 1.7243763668899108e-04  8.8069520550952776e-07 1.0217383436362416e-04 1.1349543514621890e-04  2.8415057995422648e-05 2.7348177626397172e-05 1.8043038392211999e-04  3.7163490228126926e-06 5.6719114004598564e-05 1.2730334638839325e-04  3.5882980683778731e-05 1.9085089213236575e-05 1.9829888967181462e-04  3.2794825934610192e-05 -1.9914202724939371e-05 1.8924098178436027e-04  -4.2864928933558020e-06 9.1761948271310885e-05 8.5162402280173374e-05  -1.7368701975576639e-05 -8.2391124968668664e-05 -4.7776994435125965e-05  -3.7215553484120128e-06 -1.1686498494522028e-04 8.9567434194144267e-05  3.5827796134512957e-05 -2.9041779694662724e-05 1.9832177788718509e-04  2.6552062930653916e-05 -6.5533234115418388e-05 1.7278139051300567e-04  1.2870231737606540e-05 1.8717733579780607e-05 1.5246573696345986e-04  1.6919584385832597e-05 1.1949933370948113e-04 1.0925604070723492e-04  -2.9706044563338356e-06 3.9911165807872862e-05 9.0780214109869396e-05  -1.5999145393200623e-05 1.2394682887410953e-04 -9.0461675328579015e-05  2.2142919801250017e-05 -5.1114637081179910e-05 1.6569989596494907e-04  3.6756864797181205e-05 1.3002605847280882e-05 1.9953117446599520e-04  -9.7120529084144164e-06 7.4984693209248520e-05 3.5733674709454212e-05  2.7422498731804748e-05 -7.6476410461618908e-05 1.6674246011885545e-04  1.5771731506455658e-05 -1.1095914609795263e-04 1.3335293178519858e-04  -5.2428064209022900e-06 1.3363112117496283e-04 7.0380777874416397e-05  -2.2901393442891460e-06 -1.6915872398244613e-04 4.0838240502475029e-05  -1.0178597120065917e-05 1.2838141996209553e-05 3.0921117591480469e-05  -2.2978201800644852e-06 -1.6949012119723607e-05 9.3886029234628189e-05  1.7048906577230482e-05 -1.1917656528344493e-04 1.1102930620273061e-04  6.9704526455189115e-06 -1.4779786052245350e-04 7.7819195360356034e-05  2.5492857874693435e-05 -7.9031241754592036e-05 1.4107665147410507e-04  4.8084251118551235e-07 1.4529331438288770e-04 -8.4401160335756709e-05  1.1140072687135058e-06 -1.1855577640724703e-04 1.0975047614713710e-04  4.7035771354822547e-06 -7.9249119732745148e-05 1.2872224522715651e-04  -7.3626690206719323e-06 1.5510680686591665e-04 -5.1846292820217338e-05  -1.0271044271987877e-05 1.4578986631557574e-04 -1.9937731997830289e-05  -1.6097274575666161e-05 1.1354435212691425e-04 -5.5324808171132956e-05  -1.5597570008523211e-05 5.0870695407673780e-05 -2.2818696480930310e-05  -8.3258377751032519e-06 -1.0267002252084304e-04 4.5664057180310347e-05  1.1099954366087118e-05 1.2536855705721109e-04 -3.2491765330532933e-06  5.8448887114503106e-06 -1.3380378348528112e-04 1.0398922789370996e-04  1.9747477754074365e-05 9.7311014561406135e-05 8.8256841278636940e-05  2.7608245181013235e-05 4.2139790375947508e-05 1.3575282831242903e-04  -5.0141859259154460e-06 1.6726382615154395e-04 9.0641784494468307e-06  -1.8240402637105658e-05 -3.1967427020749965e-05 -4.4637464537911271e-05  9.0907008512214956e-06 -1.5038960085855842e-04 4.1795846184653694e-05  -1.0160083438736707e-05 -4.7575205322890970e-05 2.9771710189559542e-05  -1.5029079727823170e-06 -7.1311661984489952e-05 1.0053967806727576e-04  6.2360165347146791e-06 -3.1753876008189205e-05 1.3432200497302067e-04  1.5042777467959676e-05 -3.8342128967478684e-05 1.5480012829300748e-04  2.4239823278299814e-05 -4.1887627750623219e-06 1.7241753736710764e-04  2.6941462180504854e-05 7.8733138485268547e-05 1.5280942653344201e-04  2.5920966304348420e-05 8.0905584490463826e-05 1.6370703224970540e-04  3.6595912505273774e-06 -1.6795056024591299e-04 2.5656571698488100e-05  1.2122002951165293e-05 1.3771151747195588e-04 4.6246821628829931e-05  -4.0841070174145777e-06 1.5014316504218680e-04 -7.7355771583061285e-05  -2.9903647901501274e-05 -4.0211981257195803e-05 -1.8477775750403000e-04  2.1537192435276766e-05 -5.6069698997514711e-05 8.1856854544519507e-05  2.5218498861332786e-06 -1.7237180121208371e-04 -2.2721685528012925e-05  -1.0115846541059014e-05 1.2173994964971533e-04 1.7270204580869924e-05  -1.3987638515023412e-05 3.8926758069935201e-05 -1.5486470012902927e-04  -9.5664450322293074e-06 1.1795280094211971e-04 -1.2068902992355427e-04  -6.1676584885868698e-06 1.0489860380290966e-04 -1.2619825619728366e-04  1.4884233294409897e-05 -9.4707109789652155e-05 1.4357655609621229e-04  -2.3841524392625026e-06 1.6328180538688596e-04 5.3793051676538318e-05  -1.9664708078559423e-06 1.3846138726599536e-04 8.8225981190123755e-05  1.6303246856888473e-05 -1.1701353793489003e-04 7.0142466339632783e-05  3.0200198183249965e-05 -2.0907035428504265e-05 1.5469766468157980e-04  3.4449932880621379e-05 -3.1751345225718131e-05 1.8881359403327593e-04  1.9418369096460262e-06 1.6994253955074980e-04 -3.7455254569591535e-05  -1.3487536827136458e-06 -1.7560390526224180e-04 -6.5898109805875957e-06  -1.8441346913667577e-05 -1.0725559567070047e-04 -1.3605191602265106e-04  -2.2370149949742619e-05 3.8215859039906801e-05 -1.6936222191605435e-04  -3.2007055353144228e-05 -4.8831026390356230e-05 -1.7624515946279394e-04  1.0600957116329348e-05 -8.4379869156043591e-05 1.4100661214551345e-04  -1.1794574717393265e-05 -1.2621077819651721e-04 -9.7067417643286539e-06  8.0469488064681790e-06 9.1218820036630078e-05 -5.1230991077069868e-05  4.7014810810361532e-06 1.4122083509288619e-05 1.2920475277806537e-04  8.9819421795909606e-06 -1.3934097694312398e-04 -1.0279530805411409e-05  -2.3085305427307594e-05 9.0860831065926452e-05 -1.2480029615636102e-04  -1.9420003640489190e-06 1.6985204463495853e-04 -2.9708232066055928e-05  1.7283360131581559e-05 1.0402028903985790e-04 1.4036091981638047e-04  -5.6571898239637455e-06 -7.8162454567879135e-05 -1.3292557864074894e-04  -2.3020140459686057e-05 5.2329522465646484e-05 -9.2204366217815838e-05  -2.3754047702012025e-05 -7.5278435739867819e-05 -1.6592485468832618e-04  1.9652850076635502e-05 3.6393952705488585e-05 1.6410494129103279e-04  -1.5265921386825519e-07 -1.4500998333251316e-04 8.6246643207241728e-05  9.1338109817919348e-07 -1.6212090279689814e-04 5.7940496565552495e-05  -1.3385567052651814e-05 6.7891060753360206e-05 -1.5118269708431093e-04  -1.4118474110565322e-05 9.6700607389612204e-05 -1.7116533219626175e-05  1.3845335960712924e-05 8.7180033819138993e-05 6.5395162164801366e-06  3.3003810392775125e-05 1.4605901933683614e-05 1.7343176788237884e-04  -5.1447127712580883e-06 1.5518037985487568e-04 5.3664932811149070e-05  -2.0884477627410392e-05 -6.9222719455485688e-05 -1.6215409331188702e-04  5.6437369185059590e-07 -1.7539766024380504e-04 1.4313331562973612e-05  3.3809960767757914e-05 4.4060224661869696e-05 1.9174559597408188e-04  3.2801933005622380e-05 4.0083509337322423e-05 1.7969223305735191e-04  -7.6341916742866433e-06 1.4749042509772659e-04 2.9149073960863992e-05  6.1518893437206526e-06 -1.1523832208576723e-04 1.2039305183887604e-04  -5.2263957683396148e-08 3.0385642857074719e-07 -7.8985172009841084e-08  1.9565099025711056e-06 -8.8414412676969146e-05 7.1242155021405225e-05  -5.8632943634124468e-06 3.3943671945993357e-05 -1.1153866252999697e-04  -5.3107799451774310e-06 9.4156998093317302e-05 2.4322120018475689e-05  -1.0719107650135705e-05 -6.5618831450629952e-05 -1.0458220924673017e-04  1.8273932099219548e-05 9.5756238891798683e-06 1.0720446161647179e-04  6.4916053328616452e-06 1.7097886491773590e-05 1.1515807321617756e-04  5.1444329284431044e-06 1.0616862945091476e-04 -4.6114816639876996e-06  5.9597651295495856e-06 -5.2590501357132205e-05 -5.0039707952751252e-05  -1.1017810381668235e-05 -9.8058202949228351e-06 1.7934783068444250e-05  -1.3763354085949396e-05 7.7330457826936511e-05 -9.3897222541779681e-05  1.2604047104652954e-05 -8.9976654183672355e-05 5.9034845971393439e-05  -6.8598189117634065e-07 -1.2746181345925871e-04 -1.8611911187244958e-05  1.3496360051613089e-05 3.5004308006026661e-05 3.7699258117872987e-06  -1.0597119827783957e-05 -1.0082980075941715e-04 -1.7030957143148635e-05  -2.0171893954670089e-05 -1.1847324071715206e-05 -1.0185107326161910e-04  8.7523170287772370e-06 9.5378886695168604e-05 9.3858240785458664e-05  1.6126133663289676e-05 -4.3771410798930847e-05 1.4010383206514466e-04  -1.9592759383959921e-05 5.5617330398982248e-06 -1.5214521699923338e-04  -1.6466358336992042e-05 6.1175837377758072e-05 -4.1639293889003715e-05  -4.3678379198314441e-06 1.3262727052156908e-04 -3.4277062644122451e-05  4.5050868777000939e-06 7.7956193768392333e-05 -7.0213484628007524e-05  -4.0325474572315657e-06 1.0598766240247357e-04 -9.4898699139715005e-05  -3.9675295303775411e-06 4.9839234839716109e-05 8.1019648877580239e-05  -6.4965845918344523e-06 -3.9702718741304687e-05 -1.2828140972131552e-04  1.6260938390425037e-05 8.8472755463413834e-05 7.6533592457440075e-05  1.0337046373467212e-06 -4.4026243655959573e-05 1.0936763739837103e-04  2.1441914241664462e-06 7.5174193703347770e-06 -9.8329586173380871e-05  -1.1608961373669385e-06 -1.0540057826370770e-04 -8.4887901629409739e-05  1.9194435765744374e-05 3.8291856739229910e-05 1.5296007195048870e-04  1.6789598890904071e-05 -4.4434191698441865e-05 3.3126265520562786e-05  5.1302511755072824e-06 -1.3368729569076247e-04 5.5161779579057012e-05  -3.3285184397059288e-06 -1.3961929192523987e-04 2.9156621990405581e-05  -1.0014117117851126e-05 -1.2317724352247999e-04 -7.3715047523118017e-05  5.6635867072337195e-07 1.0225500139037855e-04 9.4456688669389911e-05  6.9911820039632604e-06 -1.2274716976163523e-04 -1.6376448177444420e-05  2.2983748209459029e-06 1.4191586180744298e-04 3.4249823201919592e-05  2.2271826652168200e-05 -5.3794820625645914e-05 1.3374233019726155e-04  -1.5314743986797316e-05 6.5202284590145060e-05 -1.4448278062705679e-04  -3.2616902952856683e-06 7.2111491867397657e-05 -2.5909081378163894e-05  4.1506192041006787e-06 3.8919890673783172e-05 -3.3815728997744617e-05  </DataArray> 
</PointData> 
</Piece>
</UnstructuredGrid>
</VTKFile>