<?xml version="1.0"?>
<VTKFile type="UnstructuredGrid"  version="0.1"  >
<UnstructuredGrid>
<Piece  NumberOfPoints="201" NumberOfCells="657">
<Points>
<DataArray  type="Float64"  NumberOfComponents="3"  format="ascii">-12.25714867658101 -0.2134616168917391 2448.870395217478  12.21171936158181 0.02224604904061407 -2448.902408665886  1553.237432200541 0.2653738151044477 -2367.898566161652  2943.176090527531 0.2285243102205675 -2051.601975606775  4045.280477814385 -0.02321036999918375 -1526.410583477029  4750.971514120882 0.05177993279627812 -844.4948894976778  4990.872598952001 -0.08131495697875772 -81.01249557536912  4741.670400581545 -0.2007194663887081 683.1738338976223  4028.474075230458 -0.116981074987638 1372.706161604679  2921.59102383703 -0.008264759974775842 1925.105679505168  1529.540117329589 -0.01196291127278468 2294.845535832278  1963.775381268388 -1535.720132218772 -2179.43244503321  1929.613333030438 1191.505733322002 2142.932563076276  4753.603846190849 -1361.731312611446 -444.7323944162732  3411.584738029445 -1487.310276378277 1575.263755954686  4315.43729271299 1377.047357568169 962.9385741537635  4309.440474225105 1378.591353775333 -1133.418481985618  2191.750536122625 1374.586064875975 -2156.425269036894  740.2724818735611 -1374.06552948332 2314.620852783295  3406.841662229547 -1372.801862587997 -1745.535565288295  2374.213467391576 -2694.772922441363 -1782.927402456431  3522.535607070291 -2637.909570897444 -1262.114225556375  2417.430485601115 -3772.461294374458 -1196.169110276539  3402.299191756334 -3536.448363908225 -624.9111176733903  2136.46445115797 -4489.181079951905 -518.761006529092  3038.401317713454 -4025.444214970415 73.2475239178824  1596.524401497153 -4795.959882271422 195.2807430415033  2312.43810211207 -4165.146913378765 797.1790720453263  831.8919800696217 -4670.795248784148 875.9121309812032  1475.769039811443 -3810.3446551735 1437.287515094703  -62.48121806453532 -4095.244205124458 1469.918835576501  3545.320952836484 -3269.012586293925 645.2026541707686  3388.949873984605 1370.390473926234 1609.432888325315  3439.311526053694 2652.099668487111 1176.265066876474  4169.77517958007 2539.413925684445 492.6146550245478  545.5902975139336 -3044.495200876421 1943.535984039044  2018.779133306052 -2667.31439126904 1801.878710729883  2357.662181749718 2538.031913104686 1739.628915813763  2277.122420041028 3711.646983800817 1216.277165054884  4758.337732168337 -1328.041853421517 288.8600408537624  4199.696388194458 -2745.815224870192 -25.660557151495  4336.708858966605 -1380.195779274567 -1105.547269457492  762.8760519577902 1374.920010260965 -2350.17082963127  3373.19207075376 1338.434114970365 -1768.041332420015  3425.02299669074 2641.264258789814 -1326.519389849008  1038.866471027169 -4532.751363945291 -1020.018684118162  -727.4331281453303 -4727.341120023641 855.5826802673132  1017.886364806067 -2765.584015695811 -2028.251308800816  4147.180081492354 2571.89912381145 -649.8332197921409  3104.092169290371 3718.149443991994 -752.070802733902  2206.796380003112 3622.560868897235 -1393.494136172725  1741.900694697269 4509.434731424003 -784.7914871557242  772.5227467620359 4236.92288764575 -1331.987717719388  226.8273237876834 4882.407442291289 -689.9763177637799  -783.8962721344627 4357.871713350509 -1202.847039921  -1299.130938785368 4793.385991147731 -496.2422400809129  -2287.100725067851 4092.377907509 -893.7614212041983  -250.3508556715313 5077.263553393739 49.95283658927178  -1601.139225043945 -3936.660554203765 1384.331866278053  -2208.350045176565 -4349.808509388501 709.6918843396381  -2688.903394094682 4251.697292855309 -209.017517460702  -3547.350238602131 3323.708095397157 -580.6243392447518  -3782.162040951356 3316.309454140014 118.2985924797568  -4431.133800588708 2186.258300044909 -326.6019845921016  -4495.892014810791 2076.162276092467 446.318167829341  -3931.721485418695 2073.218333037305 -1065.296357687816  -3639.60910930607 3071.107346962192 864.4042187988533  -4683.634503093301 906.3204399970311 -645.5204198680607  -4156.430102938185 1708.54611394152 1166.824285472584  -3981.057963453129 582.5334131696685 -1378.234161945814  -4474.152484308872 -658.2612577900244 -960.7913358524208  -3095.539723925028 2578.439771563522 1541.61807778135  -699.4165143257615 -2111.04332061878 2225.070480800525  -3014.967824544774 -3364.365377886879 1158.775957123651  -3575.623702743434 -892.665365478901 -1586.686110638848  -3868.92309003041 -2093.981753403968 -1108.585768951682  -4799.125489711864 575.85857562275 705.3824515743954  -1663.499567469714 3391.803147490362 -1611.719965548609  -3423.074732302945 1101.363965370375 1784.416083112313  1067.631247462421 3428.818566687185 1722.952538704707  -4619.178322640638 -1714.197007297081 -343.907784968887  -2893.151366345639 357.2008013445377 -1928.683492537291  -2272.932648464714 1964.340055555331 2025.175117345923  -2783.93556722079 -2255.432203451991 -1669.627238671764  -2921.323241541998 -3356.966204993258 -1109.096023663512  -2471.145444828141 3784.543870079999 1159.236803694186  -1261.499557937763 -4909.224269945508 180.5008152918803  -2393.749339992758 330.8357862330498 2204.451813144471  -3530.665442174226 -477.2297630430874 1800.301896361501  -1682.27177779025 -3370.302570096193 -1616.756527235349  -1692.795431476289 -4294.816188622794 -996.9785994287489  -1444.35378665417 -2135.795674501507 -2080.59774441128  2535.835933748482 4377.205178277128 -111.1874471869655  -3409.484200492287 -3605.396978743725 495.9467002517315  -4103.775299557076 -2434.546015607478 837.2728711702794  891.9187751782571 4412.629171463267 1134.269228131563  -328.413174098367 3982.524605944448 1538.048371812927  -119.980575280657 3002.526209678499 1991.023158449393  -1362.566320896505 1269.938904268683 2312.606123564864  -2263.529237168229 -2754.724066249772 1794.666617727079  1184.763123987512 3354.24900040552 -1786.907715461844  -2800.181818413566 -4058.673560293281 -495.3844779205539  -360.5925956884152 2573.596510545655 -2105.953718725934  -807.0872275876874 1103.614700710889 -2339.661906735694  -558.9623392048652 4750.700540841975 852.4663055008459  -1065.707137207565 -782.1963054776664 2390.80570344833  -356.8527123400066 -4169.278992692705 -1400.959181419558  -2288.2220478911 -1255.25922863581 2150.742800383522  -3520.525851377608 -2018.392897645166 1521.154915827927  -4378.885403297189 -968.9438121202013 1171.118461076538  -4787.046821823994 -1256.484148925903 425.2245215803649  -4967.862478166643 -163.0467843843101 -134.1688334102492  -1907.565710383941 2184.689429011384 -1969.235539145108  -2900.526466844979 2413.62721893422 -1569.762049681061  -423.4370416193355 -4786.521059784385 -805.1043758451328  -164.1072145562393 3760.158368146196 -1659.749613416079  1992.152249148673 4467.705239190715 615.1807760229062  4295.732178573307 -1317.504693741932 999.9435652345816  260.5347636593627 -1442.583562612623 -2354.074176503546  791.7367121293549 -4959.641002117562 -395.744373003408  -1527.936567293081 3252.064332877346 1774.22500234261  4773.912409638077 1276.687999025243 -452.9733130387098  3190.491184708222 3681.741823490505 584.6888970279049  3766.342829204425 3335.953725975213 -89.34044689267758  -3810.95256535184 -3016.901918224464 -562.7825100046588  -1658.08338511174 4780.025689556001 220.4278980340841  -2780.827645847438 4121.131773606243 499.5942363971395  -263.1620825678968 -3112.684193820015 -1939.295673091904  -1150.582882940377 -567.8720054039273 -2339.834099714035  -2439.990103982538 -910.5456203223558 -2039.555084898335  1156.259586715316 4939.754046531869 -145.6951285296092  134.7120953607382 -5051.642905586179 274.4431945940474  2752.492937763215 -3210.353169758913 1294.114514945537  4778.240633186456 1292.414585141591 254.3953275620871  2171.822663186792 -1362.660248717985 2060.645608108508  -4224.747498848253 -2705.234399189165 129.6053334309729  -901.0344378981883 -3359.181069589398 1819.357630930593  2440.740640598171 2463.592688922502 -1841.304153984039  -4282.788390614563 405.2979603645518 1335.565919507005  1127.171004739186 -3789.921230189801 -1575.987362384625  1213.630140113455 2444.283104877534 2044.907960308931  711.435519193011 4917.891251808012 510.7392169373037  -3101.876186953811 3184.14072059437 -1105.396036920605  4179.72220949914 -2447.512143018885 -717.2001967301215  -87.89430743995182 1325.36203979947 2368.330859758003  3776.613368145681 -2381.531365391752 1055.080927626298  -4846.168964944839 1209.050987099886 22.11833288146044  -2585.004986799601 -4349.708328844488 65.66099346991221  -1578.112449595017 -4749.418643850253 -386.122257558124  4480.07793251484 2241.317328114979 -90.16881155868755  -1123.302041813796 2509.485356003419 2093.767514177231  1395.958413721103 2278.619300484137 -2121.338922106001  -1669.907321490367 374.2488722747864 -2262.252453491608  -1830.965125292895 4449.101748096108 819.7001145345009  4243.465386862913 -2274.616936534616 609.3131839462608  -340.3350800433842 -5047.409764006253 -243.9681113308325  -3190.803582313772 1320.786489063585 -1712.024934008351  -2175.945327504369 1123.69512977788 -2091.023373008488  -1402.258998942466 4093.149368187077 1323.821240921473  -3513.512955734376 -3599.52418842047 -81.81306761659482  -0.02544759885614951 0.1496355215112485 -0.0364765089348387  -1593.833560753486 -1998.652655959507 103.4396088641132  2408.675728810565 779.1785868032749 -64.9977560982488  -963.3363310635988 2101.364597803758 562.1787981599806  1792.217698382066 -1489.07314307511 450.5953387100164  -1162.048267639551 217.9380237361091 -1061.16738508659  -2477.131818560067 396.4773889366542 56.2296226336632  476.41010584913 2376.762978452377 -480.2228991406437  1678.192631708846 -1171.364126683146 -772.6231048391649  -1308.5597053535 -222.4709813023326 1087.738944576465  1242.732411047059 1767.656536293968 825.0411950631734  -455.1693555823507 -2018.066917387006 -916.8447050963048  412.3813390520358 -2913.518097841302 -4.328272731492664  1001.603767726891 774.2512124130571 -1236.959365395
[...]
<PointData  Vectors="Forcing"> 
<DataArray  type="Float64"  Name="Forcing"  NumberOfComponents="3" format="ascii">-5.8082990081544491e-05 -9.2494108181254125e-06 -5.3695744280799016e-04  5.6557983487111829e-06 -3.4690578342836172e-06 5.5701625555889785e-04  -3.5607143302139747e-05 3.2488539220809669e-06 4.9632084321561850e-04  -1.2257209349333026e-04 1.1409041360680655e-05 4.5563658879832725e-04  -1.3042679792654699e-04 -1.5074797334219567e-06 2.0492655138516474e-04  -2.1390743065147235e-04 1.9025878421198975e-05 1.3309816805169881e-04  -2.5099000333299846e-04 -5.7978485260034219e-06 -5.3993552141496477e-06  -2.4882342367082603e-04 -1.8195558778706073e-05 -1.8153579487338578e-04  -1.7254186807871122e-04 3.1232573104446073e-06 -3.0079597888705027e-04  -1.6230973327711968e-04 3.4001319364196748e-06 -4.7260884817072388e-04  -9.8510300650325115e-05 2.3215776180959085e-05 -5.0449012153212531e-04  -4.5989889099365877e-05 4.7536659559052970e-05 3.5746364508334609e-04  -1.1793102326956076e-04 -5.3110397222939435e-05 -5.1758863930630433e-04  -2.1373942805689210e-04 5.2987203678150408e-05 2.0485223690443221e-05  -1.6908555951548714e-04 5.8324203187732399e-05 -4.2650557929643649e-04  -1.8625737114926147e-04 -4.7628171237838334e-05 -2.7071249254005826e-04  -1.7434507828323402e-04 -5.5486556954306402e-05 2.2160603733644780e-04  -6.4933059495793813e-05 -4.5245558250955660e-05 4.3065607796241134e-04  -5.5065251447220076e-05 4.2611658016810659e-05 -4.4102220758497835e-04  -1.4836220559003279e-04 7.0941369409300455e-05 3.7666941787436764e-04  -9.3147215495825023e-05 1.1282543693665899e-04 3.7449976320517796e-04  -1.6608398475142561e-04 1.3138410288518251e-04 2.4099439854400630e-04  -1.0324001906705096e-04 1.5972310932242710e-04 2.0084869073371111e-04  -1.4557434660143582e-04 1.3562182436260609e-04 6.1735893647222199e-05  -8.8485038292622224e-05 1.7151924837395454e-04 8.8963181473633167e-05  -1.5270714744571512e-04 1.8263242104777416e-04 -7.9032815328483857e-05  -9.7093173703265273e-05 2.0468070646166155e-04 -7.2661572536395072e-05  -8.7048070577177075e-05 1.2663809594781132e-04 -1.7110597889999785e-04  -4.3607564681721390e-05 1.7868015134367367e-04 -2.0406710703144040e-04  -7.0682926566545276e-05 1.2152563471707859e-04 -2.5510871768371789e-04  -8.0808165488690364e-06 1.7472517371022907e-04 -3.1339126337159628e-04  -1.7607844017817034e-04 1.5577846303392910e-04 -1.9246822640350001e-04  -2.0763470911833756e-04 -7.1793911413495031e-05 -4.3726779142889917e-04  -1.6962179156924207e-04 -1.1258743419277021e-04 -2.7914970538495788e-04  -1.9054499086458224e-04 -8.5317659500652829e-05 -1.8766258388557558e-04  -4.0934643348077941e-05 1.1919036611493134e-04 -4.6237556972504172e-04  -1.1703900701241837e-04 1.1200201885520923e-04 -4.6139069446098633e-04  -1.5636241880358375e-04 -1.1969304317903174e-04 -4.2899337616088008e-04  -1.4457631527943425e-04 -1.6483803365850979e-04 -2.7780356471955164e-04  -2.5349082226922692e-04 3.8226529017685970e-05 -1.2711396472199208e-04  -2.0447994693126753e-04 1.1864051329169809e-04 -5.5025231408597534e-05  -2.0175323439400024e-04 4.8349513158734731e-05 2.2422449457149492e-04  1.5132247520160934e-06 -6.8612278921487293e-05 5.5177871193717702e-04  -1.5516936428163335e-04 -5.8267888841512026e-05 3.7914435472040213e-04  -1.4028826261158902e-04 -1.0116054007811008e-04 2.2661956237550701e-04  -3.7944404823883774e-05 1.3440147241538958e-04 1.9478077593116581e-04  1.4447151924352958e-05 2.1520136799240363e-04 -2.0514126032767434e-04  -2.5393000167629988e-05 1.0391057424715056e-04 4.1825949168144977e-04  -2.0382961451914273e-04 -1.0340401503953083e-04 1.1872451810414274e-04  -1.5558764350659873e-04 -1.4131448727597578e-04 1.2228664243886097e-04  -9.1067432019776575e-05 -1.6021035105755020e-04 2.7726227596686797e-04  -1.0808381227546614e-04 -1.9062952662893896e-04 1.6263936957792522e-04  -1.8614248436786404e-05 -1.8675125159956917e-04 3.2120593349043689e-04  -4.9053215605903885e-06 -1.9760802127623961e-04 1.6553994808992309e-04  5.7296182410613349e-05 -1.9289639391804420e-04 2.6530005878937479e-04  5.5852218290801010e-05 -1.5525515033905712e-04 8.7354478674332801e-05  1.1258656365790431e-04 -1.7904839962965569e-04 2.3703025331456886e-04  1.0478798484475722e-05 -1.8695404367812844e-04 -2.0102022822974428e-05  6.1411044271847742e-05 1.5542763850944362e-04 -2.5829763188000432e-04  5.9435952603333268e-05 1.3080154398539424e-04 -1.0477243905253187e-04  1.3627800671679627e-04 -1.7578448386733965e-04 7.6509737502339752e-05  1.8657904968019692e-04 -1.3593545756287155e-04 1.7292213481539650e-04  1.3046309844666490e-04 -9.0579255569819120e-05 -3.1002231987442142e-06  2.3781787743341304e-04 -1.1009084241158637e-04 1.1699787779699067e-04  2.1480760531950081e-04 -8.5468758242303176e-05 -6.4299356489931002e-05  1.6171701520702262e-04 -4.8536463968532563e-05 2.4199135399984172e-04  1.8018787183907161e-04 -1.0416335309380970e-04 -1.4846786493998389e-04  2.1692574451668398e-04 -2.6551609724906141e-05 1.9695697587528892e-04  1.5496102007560189e-04 -5.1097213242011941e-05 -1.8545043739014240e-04  2.1614655366486083e-04 -8.1933778074454536e-06 3.2351912627906704e-04  2.2883189308444110e-04 2.0499604082048165e-05 2.4509018521580184e-04  1.5644400253131237e-04 -1.2930241326030789e-04 -3.2714437874991427e-04  2.4945949857179658e-05 8.8382564218456605e-05 -4.7611792792175243e-04  1.2879053320808128e-04 1.4836547772689780e-04 -2.2633826430747088e-04  2.2503300088243258e-04 4.6595340562734409e-05 4.3465596940523354e-04  1.9204209208261585e-04 7.3741492529149190e-05 3.1109865696755159e-04  2.4314347980528307e-04 -5.6961143176019394e-06 -9.5825165784496047e-05  9.2823322801632039e-05 -1.1469470094509779e-04 3.2526523721259802e-04  1.3904070247989871e-04 -5.1329885926994216e-05 -2.9052259292877512e-04  -7.6061488507806366e-05 -1.3116426572650476e-04 -3.9415927662613291e-04  2.4192779743148450e-04 7.0667788645448974e-05 1.1534581669430776e-04  1.7955699699360799e-04 -4.7094011484309150e-06 4.8811212324323031e-04  9.7003049324612028e-05 -6.6848319545279988e-05 -4.3166981170226788e-04  1.0903013167803534e-04 6.1627617475529134e-05 3.4845953352200107e-04  1.4308652903923072e-04 1.2500465650104700e-04 3.2110250412706629e-04  1.3403588293020718e-04 -1.5795488973555856e-04 -2.2568753773634994e-04  6.5627483723773575e-05 1.8391887105210380e-04 -3.7917606094623637e-05  1.0644097992538540e-04 -1.6056388669244396e-05 -4.7625342337957971e-04  1.7000132479805903e-04 1.3387571067501110e-05 -3.6859847442787544e-04  8.9869096682303131e-05 1.3937055079178454e-04 3.7554856722087966e-04  8.5087670139046611e-05 1.4947425338415797e-04 2.1062609644617898e-04  8.3383226997085406e-05 8.3510623428436904e-05 5.1274709188197905e-04  -1.2164724420940366e-04 -1.5714043506722379e-04 -4.0896044785686135e-05  1.6193699801785510e-04 1.4040524607984795e-04 -9.9636645528715191e-05  1.5060230272662505e-04 5.9576490725651764e-05 -1.1875023569577530e-04  -6.5805024704125882e-05 -1.7270190416893911e-04 -2.7776404502768292e-04  -1.0042004323356822e-05 -1.7196284342031466e-04 -3.6182589364272620e-04  -1.9873610768917902e-05 -8.2725064266408728e-05 -3.9171704669865886e-04  3.7426610541580363e-05 -4.9744714667205931e-05 -4.8575311092652758e-04  9.5391988626295163e-05 1.0539966597902178e-04 -3.8625964946960246e-04  -4.4000947562957012e-05 -1.3433264946364717e-04 4.1174548652248125e-04  1.5524570975109167e-04 1.5815675853699424e-04 1.8202739605055761e-04  4.5439426065824484e-05 -8.9351107603930492e-05 4.0443223205598134e-04  7.1119404777599020e-05 -7.4000313994170152e-05 5.7207526000311204e-04  2.0148091719357475e-05 -2.0769853761725177e-04 -1.8015544872127480e-04  1.9987754656094576e-05 4.7847383167673574e-06 -5.6325146242289768e-04  3.6377351094420010e-05 1.7644868006462175e-04 3.2998336958593705e-04  8.6865273682681975e-05 3.2719865686436323e-05 -4.1853186129989976e-04  1.5797923786403214e-04 6.2584622444842328e-05 -3.3326602792170719e-04  1.6953894307940122e-04 3.4105384299705658e-05 -1.6953318971503156e-04  1.7078179758952430e-04 4.4561575622004674e-05 -4.6091985226113417e-05  2.4853681078928342e-04 1.7204949436140764e-05 1.0462586317873473e-04  1.1585015157066506e-04 -8.2137210542530462e-05 4.7850419454215917e-04  1.6343948581421577e-04 -1.2440737104337586e-04 3.8231974459603375e-04  1.6928744788519515e-05 2.0732465991659795e-04 2.2614320958301684e-04  3.5197407120008972e-05 -1.0668445342910723e-04 3.0900054354452778e-04  -1.0788936385785796e-04 -1.8973450305751800e-04 -1.5091426495535056e-04  -2.2557363531332448e-04 4.9037347265299861e-05 -2.4103035386740967e-04  2.6387646146129193e-05 5.0535075868471387e-05 4.8829189087978213e-04  -2.8383112456513444e-05 2.1842039261047041e-04 9.5653867537135026e-05  7.1521171466503765e-05 -1.2384362296729141e-04 -4.0082499485982862e-04  -2.5574657889648186e-04 -5.2476990117966352e-05 6.6814451802272814e-05  -1.7267337544640750e-04 -1.4985252535393469e-04 -1.6736985295320942e-04  -1.8216105966798206e-04 -1.4425881118188103e-04 -7.7083235845925506e-05  2.0291776303517858e-04 1.1790324372796834e-04 1.6271967069106600e-04  9.7721575922483174e-05 -2.0354519801033696e-04 -2.0788906439831243e-05  1.2823751014249301e-04 -1.2791996725943755e-04 -6.5319737686947676e-05  4.3468174490884203e-05 1.2708431421636361e-04 4.4322596438154397e-04  7.1949969042178327e-05 2.8675790021522298e-05 5.7761217737958847e-04  1.0827571197838765e-04 4.1849641852440011e-05 4.0134626732218074e-04  -6.0004900925125514e-05 -2.1496121442088708e-04 2.7350807919510417e-05  -3.1286858479341907e-05 2.1035190441073904e-04 -7.7661106882110774e-05  -1.5861075264588415e-04 1.2394594293351920e-04 -3.1786244788074115e-04  -2.5730308709279848e-04 -6.0049331054718362e-05 -1.0702130086794840e-04  -1.2042426165434526e-04 4.5807530323867384e-05 -4.6961592027066755e-04  2.1498840751954019e-04 1.0722442355050579e-04 2.4047169340512901e-05  6.6885745369907191e-06 9.3218729329265303e-05 -3.2974858185228281e-04  -1.0115183518467781e-04 -1.0631161034993064e-04 3.9193997750305886e-04  2.1038548207855129e-04 -9.1675251560525017e-06 -2.5779730059644664e-04  -4.0649672208370879e-05 1.3943535226726043e-04 3.0580875526046357e-04  -7.3963692962303028e-05 -8.4444098260910035e-05 -4.7275809531630952e-04  -3.9003697807321006e-05 -1.7429280933346027e-04 -1.1923963765778851e-04  1.6965841721546361e-04 -1.3984824583803529e-04 3.3760416451959264e-04  -2.1478553828816591e-04 1.1600474493234199e-04 6.9368063235060584e-05  -4.2795323120903141e-05 -5.5773221302828259e-05 -5.0892373515451636e-04  -2.0092264242399554e-04 8.6329895938372015e-05 -3.0623576696719562e-04  2.4948678173601543e-04 -5.3650956853117027e-05 6.0584798835953727e-05  1.2223767050639582e-04 1.8316514642865840e-04 1.5829293177443159e-05  6.5767518763072927e-05 1.3352210860688931e-04 1.0940662765213517e-04  -2.1627930987789284e-04 -9.8737031870746846e-05 -6.4209611440933063e-05  2.5104307696782013e-05 -5.3405363576694245e-05 -4.3748796394056069e-04  -2.4773454976581876e-05 -1.0441602412321220e-04 4.7038958865021168e-04  1.4697283511520007e-04 1.2569148137114584e-05 5.5226755810607075e-04  9.5683513475685567e-05 -1.8351984807168730e-04 -1.3455441156839248e-04  -2.4196948855412879e-04 1.0234545158278883e-04 -1.8636148483814645e-04  2.7233686763846497e-05 1.9772371738519207e-04 2.0910810649041548e-05  1.9513132908849983e-04 -5.8101478343673053e-05 4.7526421745460243e-04  1.3226234083581968e-04 -3.7688255618048405e-05 5.3691436098541473e-04  7.0532185123428666e-05 -1.8185913259487928e-04 -2.7120016013222739e-04  1.9344766140725201e-04 1.7044335361874176e-04 4.1371930333512086e-05  7.9479083455699768e-06 3.4430610543869782e-05 -1.9494721127273638e-05  1.1157488079386133e-04 1.0311014514537873e-04 -2.4287124476563964e-05  -1.8706925866461405e-04 -3.5203405095089419e-05 -3.8351223125568903e-05  7.7984556450314758e-05 -1.2286065404850695e-04 -1.9135465645520334e-04  -1.3165766041396443e-04 8.2097095942776981e-05 -1.6604458662350209e-04  7.6702155889734998e-05 -2.4693000894978606e-05 3.5522297710791995e-04  1.6118695443747180e-04 -2.5710204548949284e-05 -7.2032273568378545e-07  -2.9273348787411349e-05 -1.5011275968244977e-04 1.9305127577088233e-04  -1.0879775994790371e-04 7.3278348848986413e-05 1.8316640218550952e-04  7.4904439506275300e-05 2.5938754208971750e-05 -3.1720335461151540e-04  -1.0888901847322683e-04 -1.1528163331560261e-04 -3.4244673542285303e-04  4.6678448999847050e-05 9.3485099041840827e-05 2.4214261256620844e-04  -2.6054574250956006e-05 1.2906418201326015e-04 1.1367907352447230e-05  -5.8045596511886480e-05 -5.7006560865144837e-05 4.3096659709534601e-04  2.1427548173312813e-05 9.7852140012883582e-05 -2.7261854391829584e-04  -6.4894804956360552e-05 4.0938242944017558e-05 -4.2949245770767999e-04  1.0564435021695489e-04 -1.0599400253274986e-04 1.4136080380941068e-04  1.7007195022064394e-04 6.9660832570959908e-05 1.6993639431448493e-04  -1.6567268600667983e-04 -2.2355789469157170e-07 -2.9856650784909275e-04  3.4880049430267363e-06 -8.4096395921657563e-05 -4.3683837353449039e-04  -4.6174698871012170e-05 -1.8723652927358581e-04 -1.6585577626673575e-04  -1.3875500012201187e-04 -1.1984098501424529e-04 2.4573331720125299e-04  -1.2778891680574419e-04 -1.4731392625949791e-04 -1.7926993529961082e-05  1.6056103322691987e-04 -6.0140421636855628e-05 -2.8324795873528672e-04  -2.2060529227518517e-04 6.0715690384603365e-05 6.5963495097609420e-06  4.6677462276283029e-05 -1.2484149369228962e-04 3.9256593547957851e-04  1.9271104399616118e-04 6.4111329954931917e-05 -1.5822628615523213e-04  -1.7509642717235512e-04 -1.9042189058613144e-05 2.2510473407260083e-04  -1.5024330470014916e-04 1.5649502454176869e-04 3.3580014772919779e-05  1.9177356059471063e-04 -4.9896025721820213e-05 2.8215068424776587e-04  -2.8027252379868849e-05 4.8914389617717429e-05 3.9579665509271067e-04  7.5365567403299781e-05 1.7959989008867736e-04 1.7107804197224232e-04  5.9085465273550347e-05 1.9278642395172425e-04 -1.4907667338029965e-04  -8.2771501514221601e-05 1.6602480973045247e-04 -2.3198778855196603e-04  1.5777217378655273e-04 -1.4006163393473972e-04 -2.6110545234592825e-05  -5.5253691858495720e-05 1.5927634646335819e-04 2.8045632750031278e-04  5.6493255701017288e-05 -1.8485001825369036e-04 4.6006096432817236e-05  1.2396941151060554e-04 6.8417823466390202e-05 4.3073723392570828e-04  -2.0139147437021060e-04 -1.0089645047352456e-04 -2.2180436902973825e-04  -3.2962248706071668e-05 -7.1412380966423284e-05 -1.6654873672742205e-04  -6.0576852664693237e-05 -3.4320602224700551e-05 2.0318744110780468e-04  </DataArray> 
</PointData> 
</Piece>
</UnstructuredGrid>
</VTKFile>