<?xml version="1.0"?>
<VTKFile type="UnstructuredGrid"  version="0.1"  >
<UnstructuredGrid>
<Piece  NumberOfPoints="201" NumberOfCells="657">
<Points>
<DataArray  type="Float64"  NumberOfComponents="3"  format="ascii">-12.25714867658101 -0.2134616168917391 2448.870395217478  12.21171936158181 0.02224604904061407 -2448.902408665886  1553.237432200541 0.2653738151044477 -2367.898566161652  2943.176090527531 0.2285243102205675 -2051.601975606775  4045.280477814385 -0.02321036999918375 -1526.410583477029  4750.971514120882 0.05177993279627812 -844.4948894976778  4990.872598952001 -0.08131495697875772 -81.01249557536912  4741.670400581545 -0.2007194663887081 683.1738338976223  4028.474075230458 -0.116981074987638 1372.706161604679  2921.59102383703 -0.008264759974775842 1925.105679505168  1529.540117329589 -0.01196291127278468 2294.845535832278  1963.775381268388 -1535.720132218772 -2179.43244503321  1929.613333030438 1191.505733322002 2142.932563076276  4753.603846190849 -1361.731312611446 -444.7323944162732  3411.584738029445 -1487.310276378277 1575.263755954686  4315.43729271299 1377.047357568169 962.9385741537635  4309.440474225105 1378.591353775333 -1133.418481985618  2191.750536122625 1374.586064875975 -2156.425269036894  740.2724818735611 -1374.06552948332 2314.620852783295  3406.841662229547 -1372.801862587997 -1745.535565288295  2374.213467391576 -2694.772922441363 -1782.927402456431  3522.535607070291 -2637.909570897444 -1262.114225556375  2417.430485601115 -3772.461294374458 -1196.169110276539  3402.299191756334 -3536.448363908225 -624.9111176733903  2136.46445115797 -4489.181079951905 -518.761006529092  3038.401317713454 -4025.444214970415 73.2475239178824  1596.524401497153 -4795.959882271422 195.2807430415033  2312.43810211207 -4165.146913378765 797.1790720453263  831.8919800696217 -4670.795248784148 875.9121309812032  1475.769039811443 -3810.3446551735 1437.287515094703  -62.48121806453532 -4095.244205124458 1469.918835576501  3545.320952836484 -3269.012586293925 645.2026541707686  3388.949873984605 1370.390473926234 1609.432888325315  3439.311526053694 2652.099668487111 1176.265066876474  4169.77517958007 2539.413925684445 492.6146550245478  545.5902975139336 -3044.495200876421 1943.535984039044  2018.779133306052 -2667.31439126904 1801.878710729883  2357.662181749718 2538.031913104686 1739.628915813763  2277.122420041028 3711.646983800817 1216.277165054884  4758.337732168337 -1328.041853421517 288.8600408537624  4199.696388194458 -2745.815224870192 -25.660557151495  4336.708858966605 -1380.195779274567 -1105.547269457492  762.8760519577902 1374.920010260965 -2350.17082963127  3373.19207075376 1338.434114970365 -1768.041332420015  3425.02299669074 2641.264258789814 -1326.519389849008  1038.866471027169 -4532.751363945291 -1020.018684118162  -727.4331281453303 -4727.341120023641 855.5826802673132  1017.886364806067 -2765.584015695811 -2028.251308800816  4147.180081492354 2571.89912381145 -649.8332197921409  3104.092169290371 3718.149443991994 -752.070802733902  2206.796380003112 3622.560868897235 -1393.494136172725  1741.900694697269 4509.434731424003 -784.7914871557242  772.5227467620359 4236.92288764575 -1331.987717719388  226.8273237876834 4882.407442291289 -689.9763177637799  -783.8962721344627 4357.871713350509 -1202.847039921  -1299.130938785368 4793.385991147731 -496.2422400809129  -2287.100725067851 4092.377907509 -893.7614212041983  -250.3508556715313 5077.263553393739 49.95283658927178  -1601.139225043945 -3936.660554203765 1384.331866278053  -2208.350045176565 -4349.808509388501 709.6918843396381  -2688.903394094682 4251.697292855309 -209.017517460702  -3547.350238602131 3323.708095397157 -580.6243392447518  -3782.162040951356 3316.309454140014 118.2985924797568  -4431.133800588708 2186.258300044909 -326.6019845921016  -4495.892014810791 2076.162276092467 446.318167829341  -3931.721485418695 2073.218333037305 -1065.296357687816  -3639.60910930607 3071.107346962192 864.4042187988533  -4683.634503093301 906.3204399970311 -645.5204198680607  -4156.430102938185 1708.54611394152 1166.824285472584  -3981.057963453129 582.5334131696685 -1378.234161945814  -4474.152484308872 -658.2612577900244 -960.7913358524208  -3095.539723925028 2578.439771563522 1541.61807778135  -699.4165143257615 -2111.04332061878 2225.070480800525  -3014.967824544774 -3364.365377886879 1158.775957123651  -3575.623702743434 -892.665365478901 -1586.686110638848  -3868.92309003041 -2093.981753403968 -1108.585768951682  -4799.125489711864 575.85857562275 705.3824515743954  -1663.499567469714 3391.803147490362 -1611.719965548609  -3423.074732302945 1101.363965370375 1784.416083112313  1067.631247462421 3428.818566687185 1722.952538704707  -4619.178322640638 -1714.197007297081 -343.907784968887  -2893.151366345639 357.2008013445377 -1928.683492537291  -2272.932648464714 1964.340055555331 2025.175117345923  -2783.93556722079 -2255.432203451991 -1669.627238671764  -2921.323241541998 -3356.966204993258 -1109.096023663512  -2471.145444828141 3784.543870079999 1159.236803694186  -1261.499557937763 -4909.224269945508 180.5008152918803  -2393.749339992758 330.8357862330498 2204.451813144471  -3530.665442174226 -477.2297630430874 1800.301896361501  -1682.27177779025 -3370.302570096193 -1616.756527235349  -1692.795431476289 -4294.816188622794 -996.9785994287489  -1444.35378665417 -2135.795674501507 -2080.59774441128  2535.835933748482 4377.205178277128 -111.1874471869655  -3409.484200492287 -3605.396978743725 495.9467002517315  -4103.775299557076 -2434.546015607478 837.2728711702794  891.9187751782571 4412.629171463267 1134.269228131563  -328.413174098367 3982.524605944448 1538.048371812927  -119.980575280657 3002.526209678499 1991.023158449393  -1362.566320896505 1269.938904268683 2312.606123564864  -2263.529237168229 -2754.724066249772 1794.666617727079  1184.763123987512 3354.24900040552 -1786.907715461844  -2800.181818413566 -4058.673560293281 -495.3844779205539  -360.5925956884152 2573.596510545655 -2105.953718725934  -807.0872275876874 1103.614700710889 -2339.661906735694  -558.9623392048652 4750.700540841975 852.4663055008459  -1065.707137207565 -782.1963054776664 2390.80570344833  -356.8527123400066 -4169.278992692705 -1400.959181419558  -2288.2220478911 -1255.25922863581 2150.742800383522  -3520.525851377608 -2018.392897645166 1521.154915827927  -4378.885403297189 -968.9438121202013 1171.118461076538  -4787.046821823994 -1256.484148925903 425.2245215803649  -4967.862478166643 -163.0467843843101 -134.1688334102492  -1907.565710383941 2184.689429011384 -1969.235539145108  -2900.526466844979 2413.62721893422 -1569.762049681061  -423.4370416193355 -4786.521059784385 -805.1043758451328  -164.1072145562393 3760.158368146196 -1659.749613416079  1992.152249148673 4467.705239190715 615.1807760229062  4295.732178573307 -1317.504693741932 999.9435652345816  260.5347636593627 -1442.583562612623 -2354.074176503546  791.7367121293549 -4959.641002117562 -395.744373003408  -1527.936567293081 3252.064332877346 1774.22500234261  4773.912409638077 1276.687999025243 -452.9733130387098  3190.491184708222 3681.741823490505 584.6888970279049  3766.342829204425 3335.953725975213 -89.34044689267758  -3810.95256535184 -3016.901918224464 -562.7825100046588  -1658.08338511174 4780.025689556001 220.4278980340841  -2780.827645847438 4121.131773606243 499.5942363971395  -263.1620825678968 -3112.684193820015 -1939.295673091904  -1150.582882940377 -567.8720054039273 -2339.834099714035  -2439.990103982538 -910.5456203223558 -2039.555084898335  1156.259586715316 4939.754046531869 -145.6951285296092  134.7120953607382 -5051.642905586179 274.4431945940474  2752.492937763215 -3210.353169758913 1294.114514945537  4778.240633186456 1292.414585141591 254.3953275620871  2171.822663186792 -1362.660248717985 2060.645608108508  -4224.747498848253 -2705.234399189165 129.6053334309729  -901.0344378981883 -3359.181069589398 1819.357630930593  2440.740640598171 2463.592688922502 -1841.304153984039  -4282.788390614563 405.2979603645518 1335.565919507005  1127.171004739186 -3789.921230189801 -1575.987362384625  1213.630140113455 2444.283104877534 2044.907960308931  711.435519193011 4917.891251808012 510.7392169373037  -3101.876186953811 3184.14072059437 -1105.396036920605  4179.72220949914 -2447.512143018885 -717.2001967301215  -87.89430743995182 1325.36203979947 2368.330859758003  3776.613368145681 -2381.531365391752 1055.080927626298  -4846.168964944839 1209.050987099886 22.11833288146044  -2585.004986799601 -4349.708328844488 65.66099346991221  -1578.112449595017 -4749.418643850253 -386.122257558124  4480.07793251484 2241.317328114979 -90.16881155868755  -1123.302041813796 2509.485356003419 2093.767514177231  1395.958413721103 2278.619300484137 -2121.338922106001  -1669.907321490367 374.2488722747864 -2262.252453491608  -1830.965125292895 4449.101748096108 819.7001145345009  4243.465386862913 -2274.616936534616 609.3131839462608  -340.3350800433842 -5047.409764006253 -243.9681113308325  -3190.803582313772 1320.786489063585 -1712.024934008351  -2175.945327504369 1123.69512977788 -2091.023373008488  -1402.258998942466 4093.149368187077 1323.821240921473  -3513.512955734376 -3599.52418842047 -81.81306761659482  -0.02544759885614951 0.1496355215112485 -0.0364765089348387  -1593.833560753486 -1998.652655959507 103.4396088641132  2408.675728810565 779.1785868032749 -64.9977560982488  -963.3363310635988 2101.364597803758 562.1787981599806  1792.217698382066 -1489.07314307511 450.5953387100164  -1162.048267639551 217.9380237361091 -1061.16738508659  -2477.131818560067 396.4773889366542 56.2296226336632  476.41010584913 2376.762978452377 -480.2228991406437  1678.192631708846 -1171.364126683146 -772.6231048391649  -1308.5597053535 -222.4709813023326 1087.738944576465  1242.732411047059 1767.656536293968 825.0411950631734  -455.1693555823507 -2018.066917387006 -916.8447050963048  412.3813390520358 -2913.518097841302 -4.328272731492664  1001.603767726891 774.2512124130571 -1236.959365395
[...]
<PointData  Vectors="Self-Gravity"> 
<DataArray  type="Float64"  Name="Self-Gravity"  NumberOfComponents="3" format="ascii">-3.9251231838635577e-05 -9.2373599732032704e-06 -5.5578920136791843e-04  -1.3175862307227603e-05 -3.4790728889787671e-06 5.7584791653182612e-04  -6.5471313519554418e-05 3.2457064543476270e-06 5.2618501179452811e-04  -1.6053224624457328e-04 1.1415067482497810e-05 4.9359673811472386e-04  -1.7272586015122394e-04 -1.4928148322785969e-06 2.4722560871384523e-04  -2.5636367742914925e-04 1.9042363950799021e-05 1.7555440895131044e-04  -2.8944916526581308e-04 -5.7788748992444617e-06 3.3059800434570760e-05  -2.7955602078769039e-04 -1.8174306797303520e-05 -1.5080320383036467e-04  -1.9258168968031830e-04 3.1447764939860477e-06 -2.8075616255383054e-04  -1.6971345802456201e-04 3.4204931982532783e-06 -4.6520512737081165e-04  -9.2527107934138342e-05 2.3232913019721717e-05 -5.1047331648986318e-04  -7.7505978837158989e-05 7.0796430897117281e-05 3.8897973175495466e-04  -1.1615172286560755e-04 -7.1142691846598746e-05 -5.1936794174953032e-04  -2.5316422587856282e-04 7.3651191411158005e-05 5.9910014792230999e-05  -1.8288703576060312e-04 8.0887397629697438e-05 -4.1270410842539286e-04  -2.1162057815837950e-04 -6.8488981067833592e-05 -2.4534929031113625e-04  -2.1565629752071769e-04 -7.6367095953947014e-05 2.6291725208623843e-04  -9.8011889816997517e-05 -6.6057559479805442e-05 4.6373490660192503e-04  -4.2954111411855242e-05 6.3434735139834182e-05 -4.5313334965923894e-04  -1.8748783613723298e-04 9.1750874818261838e-05 4.1579504357001326e-04  -1.2472754242286125e-04 1.5365237001012012e-04 4.0608008582725092e-04  -2.0238971119535389e-04 1.7137154732774394e-04 2.7730011919687380e-04  -1.3066028693177893e-04 2.1689168970812257e-04 2.2826895353912356e-04  -1.7610809982700486e-04 1.8923698250063365e-04 9.2269640630134262e-05  -1.0860835520878211e-04 2.3955710770067284e-04 1.0908649318084728e-04  -1.7515892084981488e-04 2.4366174987791033e-04 -5.6581048083687672e-05  -1.0768184433407602e-04 2.7736676612915770e-04 -6.2072906706442117e-05  -9.8472368258764671e-05 1.8977484603979977e-04 -1.5968168664019867e-04  -4.3210692352974331e-05 2.4945854348978024e-04 -2.0446398321640952e-04  -7.0873426564653863e-05 1.7926845045366908e-04 -2.5491822193447685e-04  3.6273981589587207e-06 2.3676723207152915e-04 -3.2509948055658647e-04  -1.9801255599161409e-04 2.0535199263847307e-04 -1.7053411703113689e-04  -2.2101363014189661e-04 -9.2546273762166573e-05 -4.2388887410931030e-04  -1.8671271222898969e-04 -1.5277398574026525e-04 -2.6205878769377806e-04  -2.1840359167750800e-04 -1.2380530145897109e-04 -1.5980398693415108e-04  -3.0200627134172632e-05 1.6531218104837197e-04 -4.7310958864245519e-04  -1.1854501130435499e-04 1.5242849764827236e-04 -4.5988469449515949e-04  -1.6093689395658666e-04 -1.5813606986555970e-04 -4.2441890275540719e-04  -1.5256045358460566e-04 -2.2107497743059423e-04 -2.6981942731166508e-04  -2.8735785663301720e-04 5.8382747800331658e-05 -9.3246937164245304e-05  -2.3649975422647336e-04 1.6028730231655618e-04 -2.3005430987986518e-05  -2.4304757649175053e-04 6.9284398722726557e-05 2.6551883055403046e-04  -2.2240989072540372e-05 -8.9436360260873436e-05 5.7553292590919699e-04  -1.9422357757952998e-04 -7.8533379042235006e-05 4.1819856477342464e-04  -1.7636864662923929e-04 -1.4117183083312750e-04 2.6269994377434928e-04  -5.3572035199027410e-05 2.0308117047008027e-04 2.1040840252354681e-04  2.6500225548806056e-05 2.8682482554056882e-04 -2.1719433587251126e-04  -4.8582444839931448e-05 1.4579441498734853e-04 4.4144893375206758e-04  -2.4022830223520991e-04 -1.4237564335936161e-04 1.5512320216015503e-04  -1.8485837203846144e-04 -1.9765328087417272e-04 1.5155736930037007e-04  -1.1842997068648682e-04 -2.1508654283719712e-04 3.0462481412492869e-04  -1.2728298693136513e-04 -2.5895288307558511e-04 1.8183854474069006e-04  -3.4644963020240838e-05 -2.5093847370912881e-04 3.3723664971887856e-04  -1.1904270045358450e-05 -2.7158730107508831e-04 1.7253889919320592e-04  5.4038661652173148e-05 -2.5892939520309971e-04 2.6855758320740901e-04  6.1891741541123327e-05 -2.2789965194528890e-04 8.1314959888815163e-05  1.2308007473333217e-04 -2.4108084940579011e-04 2.2653674760006337e-04  1.2734218614299998e-05 -2.6389172849346459e-04 -2.2357439719799675e-05  8.4116632731728779e-05 2.1506103346637868e-04 -2.8100322077438119e-04  8.1595865401914159e-05 1.9670737041199948e-04 -1.2693235166814354e-04  1.5504316185273447e-04 -2.4023721768557982e-04 5.7744588233291911e-05  2.0902238425026854e-04 -1.8633594190910378e-04 1.5047880671157431e-04  1.6001933958949296e-04 -1.4086772983852778e-04 -3.2656457678042411e-05  2.6890942170846102e-04 -1.4325882622611346e-04 8.5906340414380143e-05  2.5228518796693714e-04 -1.1696231490420304e-04 -1.0177693233149148e-04  1.8337385621178498e-04 -7.9985972603974573e-05 2.2033451929295812e-04  2.1434862857212450e-04 -1.5072312575651630e-04 -1.8262861543124771e-04  2.4750348039338354e-04 -4.0312893702172606e-05 1.6637924651612812e-04  1.9535396972798685e-04 -7.7007540689264591e-05 -2.2584338097396322e-04  2.3578326074535631e-04 -1.7042980155690122e-05 3.0388242474344474e-04  2.5541430851591500e-04 3.0461436401226444e-05 2.1850777517919381e-04  1.9164604242159455e-04 -1.6837898654807065e-04 -3.6234641345974148e-04  4.7261623129992389e-05 1.2035408383017645e-04 -4.9843360182856198e-04  1.6048507668086810e-04 1.9933343568288994e-04 -2.5803280607262672e-04  2.4000060429672489e-04 6.0106067198326842e-05 4.1968837020289659e-04  2.1290706427271088e-04 1.0546927917638069e-04 2.9023368860078255e-04  2.8490348355587945e-04 -1.4442038775821814e-05 -1.3758516324573102e-04  9.3098997871013002e-05 -1.6609749511103453e-04 3.2498956641186660e-04  1.7858768470947219e-04 -6.8026416531368549e-05 -3.3006957044784125e-04  -7.1002655292092882e-05 -1.8310028574257707e-04 -3.9921810944644752e-04  2.7433085371160931e-04 9.6643887311768971e-05 8.2942765298651483e-05  1.8671726070547455e-04 -1.0140722647166104e-05 4.8095186364915005e-04  1.2967461344033369e-04 -9.6603918597918837e-05 -4.6434137209422545e-04  1.1736900561691036e-04 9.5790671057253781e-05 3.4012066202169426e-04  1.5676907379455319e-04 1.7587019253177710e-04 3.0741996127130427e-04  1.6158122758749927e-04 -2.1530564187796029e-04 -2.5323287725479787e-04  7.6581478822941872e-05 2.5830497403592071e-04 -4.8871602455626598e-05  1.4141049726251317e-04 -2.1071491404190738e-05 -5.1122293780507923e-04  2.1049296688015456e-04 2.0606250476135464e-05 -4.0909011257481880e-04  9.0277219221497241e-05 1.9042363916389884e-04 3.7514044508056793e-04  9.0325357174417958e-05 2.1454699802379778e-04 2.0538840920523736e-04  7.8417878832634004e-05 1.1584868756773759e-04 5.1771244092064129e-04  -1.4172812594126714e-04 -2.2347194110147747e-04 -2.0815163713772437e-05  1.9157118415186593e-04 1.9503863346802519e-04 -1.2927082950801191e-04  1.8810099610669205e-04 9.6463287657944097e-05 -1.5624892541635598e-04  -6.3928698276351077e-05 -2.3955586067724279e-04 -2.7964037019116901e-04  4.1646587644975667e-06 -2.3229117007955702e-04 -3.7603255423070343e-04  -3.7674295772827563e-06 -1.2819601188798760e-04 -4.0782322627959741e-04  6.5416440489317166e-05 -6.8971707034541470e-05 -5.1374293873779385e-04  1.2624899649846320e-04 1.4711901195023044e-04 -4.1711665631540348e-04  -6.6630969984300825e-05 -1.8513712275580990e-04 4.3437550962194070e-04  1.7270406562419326e-04 2.1966094797507891e-04 1.6456904143608846e-04  3.2058626607098826e-05 -1.2833885960600097e-04 4.1781303373601534e-04  5.9321375238348149e-05 -9.0727911118756709e-05 5.8387329151340158e-04  3.0860135812025362e-05 -2.7968149989523398e-04 -1.9086748948802553e-04  4.6344256608729649e-05 1.6629651493246032e-05 -5.8960796380525709e-04  2.8407958098903485e-05 2.3960825672799440e-04 3.3795276081914546e-04  1.2063096151547319e-04 5.1726673453517114e-05 -4.5229754725990346e-04  1.9626800566593827e-04 9.3153600074591465e-05 -3.7155479265135949e-04  2.1166462739842968e-04 4.8776079291823502e-05 -2.1165886922762980e-04  2.1032320397174731e-04 6.3595505499590418e-05 -8.5633386352344999e-05  2.8518147222384647e-04 1.9660627897556538e-05 6.7981207934491862e-05  1.1522922825759630e-04 -1.1525041444734417e-04 4.7912512178630999e-04  1.7340889381668246e-04 -1.6100407831434805e-04 3.7235034185483765e-04  1.4018321867871366e-05 2.7984720940424422e-04 2.2905363038885578e-04  2.3751964319358642e-05 -1.6364949571676506e-04 3.2044598894079849e-04  -1.1831190374109536e-04 -2.5743492954368575e-04 -1.4049172509245770e-04  -2.5049342176322240e-04 6.9032758951532167e-05 -2.1611057373080304e-04  6.4154398214017443e-06 7.2373359574319951e-05 5.0826409636467907e-04  -3.7376518325402655e-05 2.9357558789681437e-04 1.0464726960486232e-04  9.6622659305434206e-05 -1.7310503924364496e-04 -4.2592647913915199e-04  -2.9539809376858458e-04 -7.1817188542629921e-05 1.0646596145046017e-04  -1.9240746189829293e-04 -2.0564975577545147e-04 -1.4763576848141269e-04  -2.1140189644756541e-04 -1.9481764633768941e-04 -4.7842401880796572e-05  2.2752112694543681e-04 1.6362448395547340e-04 1.3811630992398316e-04  1.1194383757940421e-04 -2.7598894296286910e-04 -3.5011163283402865e-05  1.5310078023699384e-04 -1.9038817896547928e-04 -9.0183001969324931e-05  3.0657728693575188e-05 1.7422346133169584e-04 4.5603640898082327e-04  6.2755972049610161e-05 3.7262602378307205e-05 5.8680617581458429e-04  1.1115565139356146e-04 5.5627603321637245e-05 3.9846633073793334e-04  -6.9896677952052607e-05 -2.8981101087883777e-04 3.7242586353838307e-05  -3.0195046992312912e-05 2.8689863289162214e-04 -7.8752921485099306e-05  -1.6957140583894883e-04 1.7261574025659911e-04 -3.0690180018282256e-04  -2.9159368311611254e-04 -7.9629896479359611e-05 -7.2730710160773561e-05  -1.2110271421426610e-04 6.6470020671519854e-05 -4.6893747151499708e-04  2.4801262219263952e-04 1.4822171308612355e-04 -8.9770415814988039e-06  2.7418887629636406e-05 1.4409793780323235e-04 -3.5047889598797700e-04  -1.3370618386430037e-04 -1.4362186945817559e-04 4.2449432477154573e-04  2.5303001030648376e-04 -1.5324135979358657e-05 -3.0044182336964686e-04  -6.1196436098503719e-05 1.9684822471657647e-04 3.2635551575958751e-04  -6.7530135566317868e-05 -1.2145580909548783e-04 -4.7919165311275123e-04  -4.0521977018159959e-05 -2.4881125578022414e-04 -1.1772135657967463e-04  1.8471120872950406e-04 -1.8812675337859494e-04 3.2255137890072988e-04  -2.5192498112560925e-04 1.5312240997394962e-04 1.0650749948836507e-04  -2.4018849398811506e-05 -7.5833436089271198e-05 -5.2770020832419273e-04  -2.2147913387743329e-04 1.2245094429042872e-04 -2.8567928179183076e-04  2.8639402905283548e-04 -7.2001811214872813e-05 2.3677558325165164e-05  1.4234455280213345e-04 2.4907830125204698e-04 -4.2775883743568676e-06  7.4801086862012880e-05 2.0548834626667970e-04 1.0037305885843410e-04  -2.5093729483288127e-04 -1.3270462378417978e-04 -2.9551630831806489e-05  4.9595039219030993e-05 -9.1409205849877581e-05 -4.6197869288463090e-04  -5.1561837609903003e-05 -1.3892445727849191e-04 4.9717797112135110e-04  1.4230220586589263e-04 6.8845294416099335e-06 5.5693818998498997e-04  1.1578410990901872e-04 -2.5094187554454395e-04 -1.5465500324167065e-04  -2.6947774910720184e-04 1.3685160148336443e-04 -1.5885323103002937e-04  2.7973893253678332e-05 2.7420409988422904e-04 2.0170601713883958e-05  2.0620986363024087e-04 -7.8138609495279106e-05 4.6418568793128435e-04  1.3273895706494959e-04 -5.4731097424476399e-05 5.3643774843239870e-04  9.1232806818354853e-05 -2.4387427184482445e-04 -2.9190077788058118e-04  2.1946747227692416e-04 2.2499406016014939e-04 1.5352121830720376e-05  7.9478167518447915e-06 3.4429018080829333e-05 -1.9494629533458671e-05  1.2443347214885397e-04 1.3334402535146786e-04 -3.7145714985058305e-05  -2.0579280414600006e-04 -4.6981625278256502e-05 -1.9627680225156930e-05  8.9557006316117276e-05 -1.5465820774707506e-04 -2.0292710397423056e-04  -1.4176103794242748e-04 1.0464100127655571e-04 -1.5594121227329512e-04  7.7369258666679761e-05 -2.8001820448686215e-05 3.5455587606692934e-04  1.8035534065309817e-04 -3.1723848998619252e-05 -1.9888705606526865e-05  -3.6560758694871436e-05 -1.8607300540764816e-04 2.0033868650970349e-04  -1.2739230924449299e-04 9.1007896311724268e-05 2.0176094879716352e-04  9.3121975781229667e-05 2.9301564497418071e-05 -3.3542088951224631e-04  -1.1198946842017705e-04 -1.4202082392589019e-04 -3.3934628613898298e-04  4.3121592289046024e-05 1.2401397891196458e-04 2.4569946881533377e-04  -2.9192008684962493e-05 1.7315521196705950e-04 1.4505339591277883e-05  -7.5086651422775496e-05 -6.8719174610200760e-05 4.4800765135671189e-04  3.1570957636506536e-05 1.3219418602520457e-04 -2.8276195431119758e-04  -6.1665266783061191e-05 4.5136393745172910e-05 -4.3272199730166785e-04  1.1513697506210840e-04 -1.3958545194620554e-04 1.3186818242092650e-04  1.8400391909689150e-04 8.5675913624105998e-05 1.5600442803823312e-04  -1.7850146010347677e-04 -2.2195895386022691e-06 -2.8573773696583015e-04  1.6677376611146633e-05 -1.0492708171023489e-04 -4.5002774416303342e-04  -4.7493028390721625e-05 -2.3439773329000791e-04 -1.6453744565277225e-04  -1.6102337112561111e-04 -1.4773159168055214e-04 2.6800168666497545e-04  -1.4383522536288106e-04 -1.8646232979454744e-04 -1.8806861888581824e-06  1.8596297949859656e-04 -7.7880711665953469e-05 -3.0864990134424504e-04  -2.4498071942415193e-04 7.5428832550261299e-05 3.0971772312494873e-05  4.1954355305114308e-05 -1.5586441763169943e-04 3.9728904454579245e-04  2.1929694072812719e-04 8.0385483943398901e-05 -1.8481217991553583e-04  -2.0328040935285155e-04 -2.1819443298300319e-05 2.5328871288597628e-04  -1.6807626078842771e-04 1.9504276120674299e-04 5.1412966772321793e-05  2.0634407413070062e-04 -6.4133782917327436e-05 2.6758017476191464e-04  -4.4255112799766871e-05 6.4067590613133522e-05 4.1202451433960409e-04  7.9757617636404818e-05 2.2802174469163588e-04 1.6668599117908471e-04  6.9356307512490045e-05 2.4376643110509032e-04 -1.5934751641683652e-04  -8.5630149050350680e-05 2.1098410651999250e-04 -2.2912914423667955e-04  1.7916352507205117e-04 -1.7843758969146031e-04 -4.7501892010443562e-05  -6.8551654346441440e-05 2.0308031000998598e-04 2.9375428723064787e-04  6.0307291165605695e-05 -2.3652103473934232e-04 4.2192063809486136e-05  1.2612383283796432e-04 8.7909124041526089e-05 4.2858281409957817e-04  -2.1850969159782491e-04 -1.2594373774113546e-04 -2.0468615449529520e-04  -3.4225749265718214e-05 -9.4616772999934763e-05 -1.6528523576002867e-04  -7.2126119460189266e-05 -4.6812897834168440e-05 2.1473670709780274e-04  </DataArray> 
</PointData> 
</Piece>
</UnstructuredGrid>
</VTKFile>