<?xml version="1.0"?>
<VTKFile type="UnstructuredGrid"  version="0.1"  >
<UnstructuredGrid>
<Piece  NumberOfPoints="201" NumberOfCells="657">
<Points>
<DataArray  type="Float64"  NumberOfComponents="3"  format="ascii">-12.25714867658101 -0.2134616168917391 2448.870395217478  12.21171936158181 0.02224604904061407 -2448.902408665886  1553.237432200541 0.2653738151044477 -2367.898566161652  2943.176090527531 0.2285243102205675 -2051.601975606775  4045.280477814385 -0.02321036999918375 -1526.410583477029  4750.971514120882 0.05177993279627812 -844.4948894976778  4990.872598952001 -0.08131495697875772 -81.01249557536912  4741.670400581545 -0.2007194663887081 683.1738338976223  4028.474075230458 -0.116981074987638 1372.706161604679  2921.59102383703 -0.008264759974775842 1925.105679505168  1529.540117329589 -0.01196291127278468 2294.845535832278  1963.775381268388 -1535.720132218772 -2179.43244503321  1929.613333030438 1191.505733322002 2142.932563076276  4753.603846190849 -1361.731312611446 -444.7323944162732  3411.584738029445 -1487.310276378277 1575.263755954686  4315.43729271299 1377.047357568169 962.9385741537635  4309.440474225105 1378.591353775333 -1133.418481985618  2191.750536122625 1374.586064875975 -2156.425269036894  740.2724818735611 -1374.06552948332 2314.620852783295  3406.841662229547 -1372.801862587997 -1745.535565288295  2374.213467391576 -2694.772922441363 -1782.927402456431  3522.535607070291 -2637.909570897444 -1262.114225556375  2417.430485601115 -3772.461294374458 -1196.169110276539  3402.299191756334 -3536.448363908225 -624.9111176733903  2136.46445115797 -4489.181079951905 -518.761006529092  3038.401317713454 -4025.444214970415 73.2475239178824  1596.524401497153 -4795.959882271422 195.2807430415033  2312.43810211207 -4165.146913378765 797.1790720453263  831.8919800696217 -4670.795248784148 875.9121309812032  1475.769039811443 -3810.3446551735 1437.287515094703  -62.48121806453532 -4095.244205124458 1469.918835576501  3545.320952836484 -3269.012586293925 645.2026541707686  3388.949873984605 1370.390473926234 1609.432888325315  3439.311526053694 2652.099668487111 1176.265066876474  4169.77517958007 2539.413925684445 492.6146550245478  545.5902975139336 -3044.495200876421 1943.535984039044  2018.779133306052 -2667.31439126904 1801.878710729883  2357.662181749718 2538.031913104686 1739.628915813763  2277.122420041028 3711.646983800817 1216.277165054884  4758.337732168337 -1328.041853421517 288.8600408537624  4199.696388194458 -2745.815224870192 -25.660557151495  4336.708858966605 -1380.195779274567 -1105.547269457492  762.8760519577902 1374.920010260965 -2350.17082963127  3373.19207075376 1338.434114970365 -1768.041332420015  3425.02299669074 2641.264258789814 -1326.519389849008  1038.866471027169 -4532.751363945291 -1020.018684118162  -727.4331281453303 -4727.341120023641 855.5826802673132  1017.886364806067 -2765.584015695811 -2028.251308800816  4147.180081492354 2571.89912381145 -649.8332197921409  3104.092169290371 3718.149443991994 -752.070802733902  2206.796380003112 3622.560868897235 -1393.494136172725  1741.900694697269 4509.434731424003 -784.7914871557242  772.5227467620359 4236.92288764575 -1331.987717719388  226.8273237876834 4882.407442291289 -689.9763177637799  -783.8962721344627 4357.871713350509 -1202.847039921  -1299.130938785368 4793.385991147731 -496.2422400809129  -2287.100725067851 4092.377907509 -893.7614212041983  -250.3508556715313 5077.263553393739 49.95283658927178  -1601.139225043945 -3936.660554203765 1384.331866278053  -2208.350045176565 -4349.808509388501 709.6918843396381  -2688.903394094682 4251.697292855309 -209.017517460702  -3547.350238602131 3323.708095397157 -580.6243392447518  -3782.162040951356 3316.309454140014 118.2985924797568  -4431.133800588708 2186.258300044909 -326.6019845921016  -4495.892014810791 2076.162276092467 446.318167829341  -3931.721485418695 2073.218333037305 -1065.296357687816  -3639.60910930607 3071.107346962192 864.4042187988533  -4683.634503093301 906.3204399970311 -645.5204198680607  -4156.430102938185 1708.54611394152 1166.824285472584  -3981.057963453129 582.5334131696685 -1378.234161945814  -4474.152484308872 -658.2612577900244 -960.7913358524208  -3095.539723925028 2578.439771563522 1541.61807778135  -699.4165143257615 -2111.04332061878 2225.070480800525  -3014.967824544774 -3364.365377886879 1158.775957123651  -3575.623702743434 -892.665365478901 -1586.686110638848  -3868.92309003041 -2093.981753403968 -1108.585768951682  -4799.125489711864 575.85857562275 705.3824515743954  -1663.499567469714 3391.803147490362 -1611.719965548609  -3423.074732302945 1101.363965370375 1784.416083112313  1067.631247462421 3428.818566687185 1722.952538704707  -4619.178322640638 -1714.197007297081 -343.907784968887  -2893.151366345639 357.2008013445377 -1928.683492537291  -2272.932648464714 1964.340055555331 2025.175117345923  -2783.93556722079 -2255.432203451991 -1669.627238671764  -2921.323241541998 -3356.966204993258 -1109.096023663512  -2471.145444828141 3784.543870079999 1159.236803694186  -1261.499557937763 -4909.224269945508 180.5008152918803  -2393.749339992758 330.8357862330498 2204.451813144471  -3530.665442174226 -477.2297630430874 1800.301896361501  -1682.27177779025 -3370.302570096193 -1616.756527235349  -1692.795431476289 -4294.816188622794 -996.9785994287489  -1444.35378665417 -2135.795674501507 -2080.59774441128  2535.835933748482 4377.205178277128 -111.1874471869655  -3409.484200492287 -3605.396978743725 495.9467002517315  -4103.775299557076 -2434.546015607478 837.2728711702794  891.9187751782571 4412.629171463267 1134.269228131563  -328.413174098367 3982.524605944448 1538.048371812927  -119.980575280657 3002.526209678499 1991.023158449393  -1362.566320896505 1269.938904268683 2312.606123564864  -2263.529237168229 -2754.724066249772 1794.666617727079  1184.763123987512 3354.24900040552 -1786.907715461844  -2800.181818413566 -4058.673560293281 -495.3844779205539  -360.5925956884152 2573.596510545655 -2105.953718725934  -807.0872275876874 1103.614700710889 -2339.661906735694  -558.9623392048652 4750.700540841975 852.4663055008459  -1065.707137207565 -782.1963054776664 2390.80570344833  -356.8527123400066 -4169.278992692705 -1400.959181419558  -2288.2220478911 -1255.25922863581 2150.742800383522  -3520.525851377608 -2018.392897645166 1521.154915827927  -4378.885403297189 -968.9438121202013 1171.118461076538  -4787.046821823994 -1256.484148925903 425.2245215803649  -4967.862478166643 -163.0467843843101 -134.1688334102492  -1907.565710383941 2184.689429011384 -1969.235539145108  -2900.526466844979 2413.62721893422 -1569.762049681061  -423.4370416193355 -4786.521059784385 -805.1043758451328  -164.1072145562393 3760.158368146196 -1659.749613416079  1992.152249148673 4467.705239190715 615.1807760229062  4295.732178573307 -1317.504693741932 999.9435652345816  260.5347636593627 -1442.583562612623 -2354.074176503546  791.7367121293549 -4959.641002117562 -395.744373003408  -1527.936567293081 3252.064332877346 1774.22500234261  4773.912409638077 1276.687999025243 -452.9733130387098  3190.491184708222 3681.741823490505 584.6888970279049  3766.342829204425 3335.953725975213 -89.34044689267758  -3810.95256535184 -3016.901918224464 -562.7825100046588  -1658.08338511174 4780.025689556001 220.4278980340841  -2780.827645847438 4121.131773606243 499.5942363971395  -263.1620825678968 -3112.684193820015 -1939.295673091904  -1150.582882940377 -567.8720054039273 -2339.834099714035  -2439.990103982538 -910.5456203223558 -2039.555084898335  1156.259586715316 4939.754046531869 -145.6951285296092  134.7120953607382 -5051.642905586179 274.4431945940474  2752.492937763215 -3210.353169758913 1294.114514945537  4778.240633186456 1292.414585141591 254.3953275620871  2171.822663186792 -1362.660248717985 2060.645608108508  -4224.747498848253 -2705.234399189165 129.6053334309729  -901.0344378981883 -3359.181069589398 1819.357630930593  2440.740640598171 2463.592688922502 -1841.304153984039  -4282.788390614563 405.2979603645518 1335.565919507005  1127.171004739186 -3789.921230189801 -1575.987362384625  1213.630140113455 2444.283104877534 2044.907960308931  711.435519193011 4917.891251808012 510.7392169373037  -3101.876186953811 3184.14072059437 -1105.396036920605  4179.72220949914 -2447.512143018885 -717.2001967301215  -87.89430743995182 1325.36203979947 2368.330859758003  3776.613368145681 -2381.531365391752 1055.080927626298  -4846.168964944839 1209.050987099886 22.11833288146044  -2585.004986799601 -4349.708328844488 65.66099346991221  -1578.112449595017 -4749.418643850253 -386.122257558124  4480.07793251484 2241.317328114979 -90.16881155868755  -1123.302041813796 2509.485356003419 2093.767514177231  1395.958413721103 2278.619300484137 -2121.338922106001  -1669.907321490367 374.2488722747864 -2262.252453491608  -1830.965125292895 4449.101748096108 819.7001145345009  4243.465386862913 -2274.616936534616 609.3131839462608  -340.3350800433842 -5047.409764006253 -243.9681113308325  -3190.803582313772 1320.786489063585 -1712.024934008351  -2175.945327504369 1123.69512977788 -2091.023373008488  -1402.258998942466 4093.149368187077 1323.821240921473  -3513.512955734376 -3599.52418842047 -81.81306761659482  -0.02544759885614951 0.1496355215112485 -0.0364765089348387  -1593.833560753486 -1998.652655959507 103.4396088641132  2408.675728810565 779.1785868032749 -64.9977560982488  -963.3363310635988 2101.364597803758 562.1787981599806  1792.217698382066 -1489.07314307511 450.5953387100164  -1162.048267639551 217.9380237361091 -1061.16738508659  -2477.131818560067 396.4773889366542 56.2296226336632  476.41010584913 2376.762978452377 -480.2228991406437  1678.192631708846 -1171.364126683146 -772.6231048391649  -1308.5597053535 -222.4709813023326 1087.738944576465  1242.732411047059 1767.656536293968 825.0411950631734  -455.1693555823507 -2018.066917387006 -916.8447050963048  412.3813390520358 -2913.518097841302 -4.328272731492664  1001.603767726891 774.2512124130571 -1236.959365395
[...]
<PointData  Vectors="Tidal Force"> 
<DataArray  type="Float64"  Name="Tidal Force"  NumberOfComponents="3" format="ascii">2.8674671420698220e-13 -1.3176179009282737e-13 3.0272656090375472e-14  -2.8671964475411644e-13 1.3174935152112034e-13 -3.0269798292198338e-14  1.4820417166191440e-12 -6.8100682553254632e-13 1.5646330707878985e-13  3.1068477276522998e-12 -1.4276146782480976e-12 3.2799864174378191e-13  4.4284704526983846e-12 -2.0349080401302982e-12 4.6752606526524306e-13  5.3167599623788302e-12 -2.4430822584116302e-12 5.6130528400751528e-13  5.6840166432991516e-12 -2.6118388484755785e-12 6.0007760343632125e-13  5.4938429091360519e-12 -2.5244529068048387e-12 5.8000042812268739e-13  4.7653010685975931e-12 -2.1896836755955177e-12 5.0308621954295103e-13  3.5705745246956121e-12 -1.6406998501616467e-12 3.7695558231625637e-13  2.0275020196453287e-12 -9.3164902085837555e-13 2.1404908346730131e-13  2.7733899655801643e-12 -1.2743888888175771e-12 2.9279456911894484e-13  1.8445395877256655e-12 -8.4757671469039479e-13 1.9473322558805581e-13  6.0781911881491848e-12 -2.7929643542450226e-12 6.4169171737246887e-13  4.8608941344477337e-12 -2.2336092477218095e-12 5.1317824802568037e-13  4.3237279117796176e-12 -1.9867782307670216e-12 4.5646810099864256e-13  4.0591564933602651e-12 -1.8652061186166134e-12 4.2853655317497495e-13  1.5211029371044339e-12 -6.9895568450582592e-13 1.6058710984839353e-13  1.8441985126195572e-12 -8.4741998868688587e-13 1.9469721733102389e-13  4.3882723151927334e-12 -2.0164367611453225e-12 4.6328223497219976e-13  3.8938758280525149e-12 -1.7892586874876804e-12 4.1108740906503299e-13  5.2380636490074968e-12 -2.4069208427448817e-12 5.5299709314695272e-13  4.5761938708774024e-12 -2.1027878136500352e-12 4.8312164147749616e-13  5.6465362788612227e-12 -2.5946164020899914e-12 5.9612069608026218e-13  4.7115357213156231e-12 -2.1649781844709661e-12 4.9741006080352843e-13  5.5711424387395114e-12 -2.5599724921715032e-12 5.8816115659730989e-13  4.3424166620381376e-12 -1.9953658206735722e-12 4.5844112486013565e-13  4.9040536700968986e-12 -2.2534413064515375e-12 5.1773472143930206e-13  3.4879856240021830e-12 -1.6027497678834236e-12 3.6823644007782201e-13  3.8431368456009367e-12 -1.7659438286799775e-12 4.0573075216181392e-13  2.2406144081668743e-12 -1.0295754081936736e-12 2.3654795695623818e-13  5.8260121652517760e-12 -2.6770866202221033e-12 6.1506846955429284e-13  3.3502724894929223e-12 -1.5394697781809553e-12 3.5369767763147294e-13  2.6850948242226326e-12 -1.2338167556235070e-12 2.8347300302477071e-13  3.4927606754877023e-12 -1.6049439319325481e-12 3.6874055567626832e-13  2.4453460940811803e-12 -1.1236508137284674e-12 2.5816205612953446e-13  3.9130031034474603e-12 -1.7980477822558851e-12 4.1310672925699553e-13  1.5806557334091032e-12 -7.2632054226134550e-13 1.6687426583808730e-13  8.1160174971175138e-13 -3.7293574463524682e-13 8.5683076506452888e-14  6.1561241429497044e-12 -2.8287750021896322e-12 6.4991931832443631e-13  6.2181294316840111e-12 -2.8572667945418109e-12 6.5646539082897837e-13  5.5312637207776753e-12 -2.5416479883326706e-12 5.8395104832275676e-13  -1.3338202205073957e-13 6.1289818229339919e-14 -1.4081514738007753e-14  2.9350162547510363e-12 -1.3486571127660577e-12 3.0985791047497372e-13  2.3687341285805104e-12 -1.0884471680831622e-12 2.5007391572861119e-13  3.4215409449978915e-12 -1.5722180497712882e-12 3.6122168867223010e-13  1.7370034792711521e-12 -7.9816324472695045e-13 1.8338033654957515e-13  2.3532449876507232e-12 -1.0813298173523856e-12 2.4843868361165532e-13  3.3105507743577075e-12 -1.5212174180580236e-12 3.4950414458634715e-13  1.5108490283588846e-12 -6.9424395354319366e-13 1.5950457589889536e-13  4.6007783479700858e-13 -2.1140845244743823e-13 4.8571709378196885e-14  -4.5846449540620927e-13 2.1066711357369780e-13 -4.8401384606839725e-14  -1.4879049601098675e-12 6.8370102016429425e-13 -1.5708230616395698e-13  -2.3684688479424258e-12 1.0883252700804331e-12 -2.5004590930647527e-13  -3.3101339047835742e-12 1.5210258640537349e-12 -3.4946013449441929e-13  -4.0384537758085333e-12 1.8556930989750585e-12 -4.2635090912910326e-13  -4.8489998168585184e-12 2.2281437393137300e-12 -5.1192253150664788e-13  -2.9242750958539035e-12 1.3437214875126984e-12 -3.0872393615828712e-13  3.9300514448623157e-13 -1.8058815947169879e-13 4.1490657054895426e-14  -1.6549722093067570e-13 7.6046939702589275e-14 -1.7472006495358969e-14  -5.3066522286787560e-12 2.4384376957362157e-12 -5.6023818216817351e-13  -5.8487775751118801e-12 2.6875474590277365e-12 -6.1747187782126221e-13  -6.0272194084029610e-12 2.7695425237206389e-12 -6.3631048340492648e-13  -6.2342682394825755e-12 2.8646826709935566e-12 -6.5816921010218532e-13  -6.1559725540136560e-12 2.8287053461880728e-12 -6.4990331465464442e-13  -5.6964848332891215e-12 2.6175680546038480e-12 -6.0139390527670898e-13  -5.6457512647281166e-12 2.5942556835104867e-12 -5.9603781993312536e-13  -5.8951692034332165e-12 2.7088646832192859e-12 -6.2236957233723367e-13  -5.4890678576505314e-12 2.5222587427557144e-12 -5.7949631252424107e-13  -5.0153849158431922e-12 2.3045986641683103e-12 -5.2948827378221678e-13  -4.8797019902988632e-12 2.2422515673438709e-12 -5.1516384619915274e-13  -4.6857656021874206e-12 2.1531366642058503e-12 -4.9468943693889726e-13  5.7345553117995239e-13 -2.6350616618526493e-13 6.0541311263302949e-14  -1.5445667388484735e-12 7.0973743846150063e-13 -1.6306424930833289e-13  -3.8097493824363101e-12 1.7506020943364965e-12 -4.0220594389013743e-13  -3.4582308814121409e-12 1.5890772898630296e-12 -3.6509514832151685e-13  -5.6887808670035263e-12 2.6140280370960204e-12 -6.0058057591549676e-13  -3.8610297539452032e-12 1.7741657245783405e-12 -4.0761975675689919e-13  -4.2606939838364118e-12 1.9578137726899748e-12 -4.4981343216336940e-13  -3.5764161126240437e-13 1.6433840939360291e-13 -3.7757229516288184e-14  -4.4180432994544945e-12 2.0301167023087410e-12 -4.6642524140741132e-13  -3.7245726420489138e-12 1.7114628846030795e-12 -3.9321359614596909e-13  -3.3681762256183346e-12 1.5476966495080009e-12 -3.5558782534582901e-13  -2.2057056417511916e-12 1.0135346261202561e-12 -2.3286254042700675e-13  -1.7181685539671575e-12 7.8950848653318194e-13 -1.8139188057792562e-13  -4.6481282349228700e-12 2.1358420741043616e-12 -4.9071595435341081e-13  1.1413401689601317e-12 -5.2445247431321802e-13 1.2049448766175184e-13  -2.6335924832002398e-12 1.2101511290936652e-12 -2.7803575621295647e-13  -3.5593785989903353e-12 1.6355552569036090e-12 -3.7577359699019397e-13  -3.6079249557597863e-13 1.6578625914030404e-13 -3.8089877224106524e-14  1.8594007173489672e-13 -8.5440549055756773e-14 1.9630215678730208e-14  -7.9073120155225136e-13 3.6334560584910791e-13 -8.3479714111882945e-14  5.9693016070513839e-13 -2.7429289556962255e-13 6.3019593842513150e-14  -1.9489572952100433e-12 8.9555726119318641e-13 -2.0575689627653064e-13  -3.3100364547532580e-12 1.5209810851955896e-12 -3.4944984642098165e-13  -1.1435598640951239e-12 5.2547243719319654e-13 -1.2072882711227679e-13  -2.2611601228919848e-12 1.0390162841193278e-12 -2.3871702577268248e-13  -1.4568887810162811e-12 6.6944890470235145e-13 -1.5380784101259740e-13  -1.9324557567430766e-12 8.8797470788056604e-13 -2.0401478250775005e-13  -9.2835771381234182e-13 4.2658579212211390e-13 -9.8009331604065231e-14  -6.1336131859465390e-13 2.8184310859580456e-13 -6.4754277336033208e-14  -1.1384437375034954e-12 5.2312154714056323e-13 -1.2018870325679854e-13  -2.0091922417269300e-12 9.2323557095572403e-13 -2.1211606878028823e-13  -1.7828212351917357e-12 8.1921677119831080e-13 -1.8821744574419134e-13  -3.0083203331115112e-12 1.3823407649487609e-12 -3.1759682793865133e-13  -5.1581925213817887e-13 2.3702195930660468e-13 -5.4456487384550245e-14  1.5940226292342150e-12 -7.3246270897028910e-13 1.6828544657795583e-13  -1.6939522214334500e-12 7.7838094028405114e-13 -1.7883529432866200e-13  -2.7788796506213400e-12 1.2769114311597677e-12 -2.9337413058926753e-13  -4.3474569941617419e-12 1.9976818827254258e-12 -4.5897324688071783e-13  -4.7540889012205968e-12 2.1845316191944558e-12 -5.0190251953798228e-13  -5.5991972196895843e-12 2.5728638278886946e-12 -5.9112297862809112e-13  -3.5556971534005915e-12 1.6338636111514496e-12 -3.7538493643810384e-13  -4.7588639527061158e-12 2.1867257832435801e-12 -5.0240663513642869e-13  1.9128628867588406e-12 -8.7897166967900006e-13 2.0194630818714080e-13  -2.3477607165001203e-12 1.0788097627245363e-12 -2.4785969370096808e-13  1.8401814058142789e-14 -8.4557410464555906e-15 1.9427312008153726e-15  5.7104256015149860e-12 -2.6239739190329808e-12 6.0286567133793265e-13  7.5963381410006785e-13 -3.4905617467204383e-13 8.0196675565991948e-14  3.4381832446197597e-12 -1.5798652836567851e-12 3.6297866299153175e-13  -3.2196948627590747e-12 1.4794685959804660e-12 -3.3991223078461618e-13  4.7250758616390762e-12 -2.1711999580388347e-12 4.9883953145173054e-13  1.7910070377383413e-12 -8.2297819528252390e-13 1.8908164391295650e-13  2.5456979697451215e-12 -1.1697630867608596e-12 2.6875648553180391e-13  -2.8430288400226153e-12 1.3063883583911454e-12 -3.0014654070943857e-13  -4.3537154516643059e-12 2.0005576805040969e-12 -4.5963396981927120e-13  -5.2571151299344176e-12 2.4156751095123061e-12 -5.5500841150401918e-13  1.0836280954503340e-12 -4.9793343943377808e-13 1.1440166194810316e-13  -1.3046880753332660e-12 5.9951179142226727e-13 -1.3773958498184640e-13  -2.5605969966024349e-12 1.1766092766284223e-12 -2.7032941764849818e-13  -1.2730059876991821e-12 5.8495368709633077e-13 -1.3439481799532931e-13  2.8184118795864941e-12 -1.2950767212807499e-12 2.9754765904715334e-13  4.9704063129614471e-12 -2.2839307334198690e-12 5.2473975633109178e-13  4.8084930875901986e-12 -2.2095306606112936e-12 5.0764612231438522e-13  3.4409768121555059e-12 -1.5811489442569530e-12 3.6327358776341192e-13  -3.3928906360847720e-12 1.5590530654765416e-12 -3.5819699508155193e-13  9.4344622683971595e-13 -4.3351905199162611e-13 9.9602268307999464e-14  1.2763842554168289e-12 -5.8650602084537109e-13 1.3475147120783559e-13  -4.9338517238115271e-12 2.2671336861866629e-12 -5.2088058567269071e-13  3.0671963930945363e-12 -1.4093946584116043e-12 3.2381253897391676e-13  3.6221634879671758e-13 -1.6644052801209512e-13 3.8240197408223748e-14  -1.6889660282155771e-12 7.7608975537561167e-13 -1.7830888790443395e-13  -5.3322382755274711e-12 2.4501946337137237e-12 -5.6293937300520020e-13  5.9554095638406761e-12 -2.7365454806961647e-12 6.2872931640062662e-13  -4.9966420266789407e-13 2.2959861971183461e-13 -5.2750953432436958e-14  5.6785702693825610e-12 -2.6093362078481193e-12 5.9950261444308201e-13  -6.1561133151685578e-12 2.8287700267609491e-12 -6.4991817520516541e-13  -6.7289787322760365e-13 3.0920050320830005e-13 -7.1039718646820687e-14  6.2841734827858893e-13 -2.8876144217926823e-13 6.6343784682154870e-14  3.9308689423388612e-12 -1.8062572395825411e-12 4.1499287605390371e-13  -2.3319846393699563e-12 1.0715605631336650e-12 -2.4619416892333464e-13  1.4669477897011970e-13 -6.7407107794869271e-14 1.5486979881522019e-14  -2.3785062010650491e-12 1.0929374924694088e-12 -2.5110558087055639e-13  -4.3055101700009618e-12 1.9784070720081739e-12 -4.5454480282543167e-13  6.1008699757601176e-12 -2.8033853896211924e-12 6.4408598068527135e-13  2.2118179242082801e-12 -1.0163432556117091e-12 2.3350783125540352e-13  -4.5392061704816303e-12 2.0857917492695163e-12 -4.7921674604826094e-13  -3.3250762427654736e-12 1.5278919556360290e-12 -3.5103763908819706e-13  -3.5697083022039088e-12 1.6403018158670213e-12 -3.7686413277458821e-13  -2.1408634743565531e-12 9.8373927145317796e-13 -2.2601697067350110e-13  -8.1208358597276188e-17 3.7315715121163245e-17 -8.5733945314005865e-18  -7.6566488819855886e-13 3.5182748844837554e-13 -8.0833392999857294e-14  2.3345129262676183e-12 -1.0727223257311041e-12 2.4646108727307899e-13  -2.1226782159213363e-12 9.7538303898037881e-13 -2.2409710185810278e-13  2.8747596526718576e-12 -1.3209688521461545e-12 3.0349645173267448e-13  -1.5701852690406277e-12 7.2150930272505689e-13 -1.6576886950317204e-13  -3.0253849161980856e-12 1.3901820405528882e-12 -3.1939838390951629e-13  -7.5197315893905803e-13 3.4553605887894741e-13 -7.9387918681863156e-14  2.4285467916326908e-12 -1.1159314361270697e-12 2.5638850658080543e-13  -1.2429967922522019e-12 5.7116428650189028e-13 -1.3122666293615910e-13  5.9976162547489668e-13 -2.7559397017018041e-13 6.3318519531841323e-14  4.1758962157891364e-13 -1.9188487029604562e-13 4.4086109359368095e-14  1.9855551954845490e-12 -9.1237421014112413e-13 2.0962063941201517e-13  5.8749916332670805e-13 -2.6995929718688480e-13 6.2023936957599839e-14  8.4092879494651438e-13 -3.8641169322266957e-13 8.8779215051559353e-14  1.2850248247715789e-12 -5.9047641293426293e-13 1.3566368038597661e-13  -3.1265867726820110e-12 1.4366848847368816e-12 -3.3008254817454769e-13  -2.3517182705090941e-12 1.0806282819081078e-12 -2.4827750379446503e-13  2.9066691237100139e-12 -1.3356314404744303e-12 3.0686522422387952e-13  -9.4030617030728793e-13 4.3207617767360781e-13 -9.9270763719451973e-14  -9.8976206069302899e-13 4.5480144818239608e-13 -1.0449196098907492e-13  1.3928316277547499e-12 -6.4001426861477784e-13 1.4704514740622862e-13  1.0999130782943745e-12 -5.0541648417274199e-13 1.1612091333146670e-13  -3.3129599556627602e-12 1.5223244509399513e-12 -3.4975848862411205e-13  3.9312046035543962e-12 -1.8064114778717084e-12 4.1502831275130017e-13  -1.8949862200862935e-12 8.7075723692366154e-13 -2.0005901827096185e-13  -2.6878938056489521e-12 1.2351029039380166e-12 -2.8376849935628632e-13  3.0455895558170882e-12 -1.3994661904750335e-12 3.2153144446892877e-13  3.6984235505805907e-12 -1.6994472243340647e-12 3.9045296310685806e-13  -3.6633848507911523e-12 1.6833467371164534e-12 -3.8675382914637644e-13  1.0609926189639865e-12 -4.8753230577233910e-13 1.1201197111238409e-13  5.0657232703923574e-13 -2.3277294321147489e-13 5.3480263527241427e-14  7.2143340221590905e-13 -3.3150286227904855e-13 7.6163750778421102e-14  2.9132794840998325e-12 -1.3386689396852930e-12 3.0756309853873549e-13  -4.0790146439825852e-12 1.8743310548209083e-12 -4.3063303391772002e-13  2.4942822509718995e-12 -1.1461372636604805e-12 2.6332838367415646e-13  -2.5699413717316949e-12 1.1809030715816974e-12 -2.7131592957924463e-13  -1.3578741363239088e-12 6.2395109711228765e-13 -1.4335458684027834e-13  2.4359963050613473e-12 -1.1193545310608508e-12 2.5717497263915252e-13  -3.6881046751481638e-13 1.6947056407993358e-13 -3.8936357044173480e-14  7.2857973777246934e-13 -3.3478664520971096e-13 7.6918209497184346e-14  </DataArray> 
</PointData> 
</Piece>
</UnstructuredGrid>
</VTKFile>