<?xml version="1.0"?>
<VTKFile type="UnstructuredGrid"  version="0.1"  >
<UnstructuredGrid>
<Piece  NumberOfPoints="201" NumberOfCells="657">
<Points>
<DataArray  type="Float64"  NumberOfComponents="3"  format="ascii">-1.21333388292658 -0.02120412430413906 2494.782796200016  1.209108845533984 0.00155582161071494 -2494.785704185313  1545.862552097924 0.02824322801336606 -2376.720709188563  2939.299389983893 0.02588788587910393 -2025.637929832459  4045.042009002357 0.001387678707317438 -1475.433942999818  4754.776535365701 0.009325126593153665 -780.0551375855174  4999.001195936634 -0.003932426348875548 -8.437735891901214  4753.828789863002 -0.01595206238151598 763.2578828097144  4043.335903690581 -0.007712699508047585 1459.439280509602  2937.127727806216 0.002781752288539029 2012.48006584367  1543.504385666908 0.0008536837412304955 2369.124109664896  1958.075580011598 -1510.117329181981 -2174.202454432609  1943.181608311423 1172.861050919046 2218.801611957591  4758.606882852522 -1343.735334339772 -378.3365107235759  3425.039349381092 -1466.436000279383 1657.448165090432  4327.36420633886 1359.063756314512 1042.036075204249  4310.587327146502 1359.217477504643 -1076.210362228462  2186.319561958081 1351.67347134209 -2146.174310111579  751.8694222435851 -1351.605187970596 2371.173943958414  3404.598932317115 -1351.488187607973 -1706.768687197622  2370.156729845666 -2651.812709443886 -1761.646856137542  3521.101891935282 -2598.836783940069 -1216.862985815468  2414.591318649338 -3715.175130882765 -1167.102579818025  3401.767638314003 -3486.245313903869 -578.4965874317461  2134.689717178868 -4422.923800481557 -490.1334525619319  3039.164969400918 -3968.962475866268 117.9301498660234  1596.434370823057 -4725.392912287723 219.3540109932542  2315.265423207228 -4105.136543909222 838.0670805772876  833.9162541408195 -4600.472675606919 894.1231196627066  1481.255903618934 -3752.598406646644 1476.27612741626  -58.06522280686575 -4031.16770986798 1482.231724266011  3550.523203398621 -3224.581938450303 704.3872761237974  3402.787851979091 1351.233344267566 1692.605568481068  3448.392909660033 2615.644158813714 1245.125517987232  4176.585259531716 2506.230561922499 559.4074686288217  553.4549467427676 -2995.424300382741 1980.306642728152  2028.76852115002 -2626.461580539376 1864.017518844473  2368.263484954897 2500.247497933161 1805.888996205479  2282.565010074442 3657.498333702644 1264.6676051297  4767.272010151854 -1310.934304813635 362.0548165588735  4203.671113748121 -2709.210420396326 35.76266260482607  4338.141789183289 -1360.473715598482 -1047.637241638181  754.108403279874 1351.700331591607 -2374.871943127532  3370.73266817002 1317.598751616114 -1730.001950324216  3423.219998664183 2601.937704618852 -1283.299226137848  1036.155289263889 -4463.342972531022 -1010.533860470978  -724.9668033140933 -4655.234863975732 849.2062421391915  1011.638257427616 -2720.052937853932 -2036.689958412363  4148.645270705203 2536.345137834441 -592.7677451095003  3102.657365351964 3664.409697585939 -710.3520587584412  2203.31052415545 3566.753900852584 -1369.417457857887  1739.493344782092 4441.73602504193 -763.1246195073895  768.7811893923925 4171.090284982493 -1330.064903015919  225.1170367258391 4808.749070809459 -690.1731050153371  -787.3019187972218 4291.432845403216 -1224.992744445814  -1299.678717655203 4722.549554997139 -517.9927097526137  -2290.260625905345 4033.1018490031 -935.9702403531988  -250.029483423409 5001.47703614144 46.50036595652993  -1597.30542992641 -3875.230407968951 1369.775046475378  -2206.019165106645 -4285.132873995692 680.6612915523561  -2689.433049532623 4191.086973631908 -249.5370278752521  -3552.157003192318 3278.146090874406 -638.5157218092172  -3784.113235084506 3270.869995556969 64.06035237845833  -4438.342213311962 2157.858391653569 -395.3432497690272  -4499.587536344766 2048.334639704547 383.633936185957  -3942.452213383688 2045.36971845202 -1139.867271577631  -3639.197684319671 3026.961073373899 815.614863887675  -4695.042176536173 894.5274391874684 -723.4150476514983  -4157.052171683998 1684.040835968842 1112.17714909681  -3995.914407529169 574.3207499616713 -1464.018332645202  -4487.531221641801 -649.6846649380319 -1042.550872223296  -3092.884713120695 2538.834421683648 1505.318605985397  -691.4949506245172 -2075.62764970896 2246.55361589707  -3012.650748045722 -3313.8931075788 1120.408401295564  -3590.558583112549 -880.1905390622163 -1672.5751926896  -3879.751421943681 -2065.768130367398 -1183.325745249748  -4803.62167247178 567.7683929369311 639.7617129249793  -1670.666478366952 3340.383394410867 -1659.334864591864  -3420.840120619595 1084.142635045331 1745.810396736047  1074.525513548868 3375.485149468634 1762.538358461412  -4627.867339588128 -1692.139234048222 -415.4105825589584  -2908.654840178165 351.6167418645421 -2015.251771998156  -2268.005514688603 1932.034623292691 2010.497791878336  -2795.413894576177 -2222.573101915763 -1741.992051111747  -2927.693635084752 -3309.155686867611 -1166.898435332856  -2468.301535153243 3726.839453213787 1129.157640967647  -1260.278588707007 -4836.159129046876 162.9020467314691  -2388.541122545676 325.3100679627964 2191.972334712906  -3528.685704800971 -469.9157831190122 1760.366992420159  -1689.48839565617 -3319.024520803492 -1665.144827589903  -1695.596455604436 -4231.074457302224 -1030.816877446176  -1455.301228211498 -2101.875936248785 -2142.156505137281  2535.164998745232 4314.446221831201 -74.76670511716479  -3409.275777415598 -3554.175832896761 448.6782387800081  -4104.90354305446 -2400.300949143819 781.9081351484297  895.0544052993648 4345.734685027918 1156.9613012722  -323.7440606547677 3919.683483376224 1547.146340232381  -112.7713676042356 2953.683723423369 2015.611584377735  -1355.241762179995 1248.064388031201 2323.385756126069  -2259.263960875233 -2710.455746850772 1775.562981641028  1179.530943904213 3300.227063092447 -1786.11258582916  -2802.243139490246 -4000.917897568019 -540.3720731007159  -369.2927503109073 2531.786474115968 -2144.794454050093  -819.1134877175322 1085.549528485724 -2399.073654594969  -556.6165475652838 4678.489866766045 848.7703262757882  -1057.291671107654 -768.4575882629093 2411.045986733867  -360.8571312357234 -4104.453297600693 -1419.418763983309  -2283.068055185391 -1234.777897320295 2138.71160118164  -3518.972001118911 -1987.603856859811 1478.203669138488  -4380.535429232971 -955.2236490451552 1113.437668729953  -4792.532985287061 -1239.918443050437 358.544837792318  -4977.344186609586 -161.2408986463587 -208.5270007882621  -1919.041376510243 2150.88642161546 -2035.763323305362  -2911.322581064791 2378.845322787062 -1640.775738128666  -425.0142922168812 -4714.027779401131 -816.3849147383899  -169.4932470583129 3700.845101615594 -1680.239354354423  1993.624058623624 4402.902825580409 648.7163118923934  4307.900212633849 -1300.18361310804 1079.798562724682  250.8882481207512 -1418.521697174827 -2390.319987629409  790.4792488824274 -4885.192790754775 -386.0214972658161  -1523.068177001512 3199.593791914556 1767.371504279342  4778.942262048428 1259.866727040058 -386.2708847854734  3194.091391704852 3630.845595837763 636.8852565719113  3768.284236412277 3290.643512799671 -34.90577727319981  -3816.712372129233 -2976.041608401635 -624.8288830822227  -1656.746912736966 4709.496683116491 197.2470554825245  -2779.428402700001 4061.316178648277 461.6143722543423  -270.3704301810851 -3062.356291184399 -1970.247751328438  -1163.652368454918 -558.9202391834178 -2407.385291927235  -2454.597268720894 -896.9352346703008 -2121.582223888525  1155.212726016784 4866.347846428125 -129.5434836066562  135.2987019733504 -4975.801304993782 277.3516712756257  2760.072097275029 -3164.168679446697 1353.129353241507  4786.97641754843 1275.919622813343 327.4568773682877  2185.435978127088 -1341.71691263044 2137.292814224836  -4228.494069591995 -2668.782560965217 68.7981835255804  -895.5562152559679 -3304.816761491684 1824.16618177596  2436.543402244851 2424.264156151056 -1819.817951620364  -4283.7602291121 399.1964351614711 1280.158523869086  1122.909079269731 -3729.842509911097 -1572.046453159993  1223.586913812452 2405.260507220649 2099.444610145655  712.1991944323867 4844.553906104816 523.6898004755147  -3108.865643315311 3139.325621908707 -1166.201880500682  4181.261649531517 -2413.733792270804 -659.9987521270737  -77.64006967760425 1302.903501509687 2409.047363092709  3786.244802268972 -2349.103219122153 1126.857681242856  -4853.684409211002 1193.332220072973 -48.63518375507721  -2584.467758016496 -4287.073587001372 28.44244453971082  -1578.266116628902 -4679.418235240097 -411.2241902708952  4484.965416155836 2211.991675178813 -24.9754815166664  -1116.718710852857 2467.872545262408 2101.941550777711  1389.421587739004 2241.104316668343 -2124.96849688175  -1684.07407240635 367.9843484494377 -2337.796238950231  -1828.335057990438 4382.080669855393 796.727371430187  4251.720946445693 -2244.756578222841 679.3478534860699  -340.5416505435512 -4971.655498919191 -250.2079688018526  -3204.956127742924 1301.869187074486 -1795.150102992367  -2189.901999181358 1106.511091164217 -2169.156872398939  -1398.564357567967 4029.50919969701 1311.618308312126  -3515.523294658815 -3549.758874732137 -133.7812486960588  -0.002727561636886051 0.0150178766343023 -0.003742962577254458  -1594.277359886009 -1960.560933922134 72.81724527930182  2410.603644951165 764.5536861232964 -17.01518866400189  -960.7063753453082 2060.80827157254 551.9757681330057  1796.495795420077 -1460.816485540576 495.8192380560819  -1169.841951765254 213.8232586739576 -1107.803071190454  -2479.309928032674 389.1129614591293 6.690112613865005  473.9858514357231 2331.033631632062 -478.4658009545324  1675.054802718855 -1148.709483097126 -751.4542427354277  -1303.261011225097 -218.2550353472174 1080.563007272813  1248.526812163704 1734.375386531345 865.8485034821383  -460.6704428418751 -1979.336849456974 -942.691347384809  412.5852400896113 -2858.580196956929 3.686404602302616  995.2939553993069 759.
[...]
<PointData  Vectors="Tidal Force"> 
<DataArray  type="Float64"  Name="Tidal Force"  NumberOfComponents="3" format="ascii">2.9934483757070635e-13 -1.3755070136529053e-13 3.1602675362013416e-14  -2.9933400978956005e-13 1.3754572593660772e-13 -3.1601532242742561e-14  1.4753068367461435e-12 -6.7791210889183119e-13 1.5575228689231904e-13  3.1056674995073528e-12 -1.4270723565216701e-12 3.2787404174325893e-13  4.4321194149446890e-12 -2.0365847595964092e-12 4.6791129645952068e-13  5.3247400370836565e-12 -2.4467491493508698e-12 5.6214776291013417e-13  5.6960733776055611e-12 -2.6173789883139010e-12 6.0135046674441652e-13  5.5097218501871051e-12 -2.5317493729681969e-12 5.8167681253339386e-13  4.7839627494032483e-12 -2.1982588269303610e-12 5.0505638560626693e-13  3.5899724946192153e-12 -1.6496133306469219e-12 3.7900348048999024e-13  2.0446857083245124e-12 -9.3954502617801377e-13 2.1586321375014565e-13  2.7598011002415535e-12 -1.2681447258206359e-12 2.9135995443402383e-13  1.8682416006549241e-12 -8.5846792807709177e-13 1.9723551367195391e-13  6.0807790278431503e-12 -2.7941534817002164e-12 6.4196492287820281e-13  4.8706337235888339e-12 -2.2380846458220080e-12 5.1420648380981297e-13  4.3459519325824060e-12 -1.9969902981385138e-12 4.5881435330206919e-13  4.0714568527424659e-12 -1.8708582056002988e-12 4.2983513666666439e-13  1.5256614329670276e-12 -7.0105033998129376e-13 1.6106836306142282e-13  1.8500130310951218e-12 -8.5009179388956107e-13 1.9531107237947217e-13  4.3816565409123411e-12 -2.0133967742201182e-12 4.6258378909770834e-13  3.8766380004675994e-12 -1.7813378050246280e-12 4.0926756318583430e-13  5.2262288842145862e-12 -2.4014826991945570e-12 5.5174766378390983e-13  4.5554045310765010e-12 -2.0932349905790179e-12 4.8092685247745768e-13  5.6315398019735927e-12 -2.5877254333642828e-12 5.9453747589013011e-13  4.6883642696625344e-12 -2.1543307670897278e-12 4.9496378556390210e-13  5.5548195586614596e-12 -2.5524720334321498e-12 5.8643790429649835e-13  4.3187038213277324e-12 -1.9844696318581921e-12 4.5593769365696657e-13  4.8878498956114562e-12 -2.2459955774276941e-12 5.1602404345046991e-13  3.4656208420444927e-12 -1.5924730199390553e-12 3.6587532722387425e-13  3.8297970192286910e-12 -1.7598141005427412e-12 4.0432242922012253e-13  2.2220231079386713e-12 -1.0210325971452687e-12 2.3458522116818288e-13  5.8187467241026069e-12 -2.6737481075759300e-12 6.1430143652355028e-13  3.3748461388044575e-12 -1.5507615135766190e-12 3.5629198681667467e-13  2.7109786350528708e-12 -1.2457105178897924e-12 2.8620562964174577e-13  3.5154123936457702e-12 -1.6153525287370116e-12 3.7113196119089376e-13  2.4369437359116493e-12 -1.1197898810705979e-12 2.5727499557535222e-13  3.9112435890111865e-12 -1.7972392750949266e-12 4.1292097237548191e-13  1.6080987447244093e-12 -7.3893076625795735e-13 1.6977150163006527e-13  8.3940207780488567e-13 -3.8571015777839174e-13 8.8618035234369034e-14  6.1627345033395225e-12 -2.8318125014004944e-12 6.5061719263929223e-13  6.2128238189223215e-12 -2.8548288344872281e-12 6.5590526238626021e-13  5.5296991064020347e-12 -2.5409290388880030e-12 5.8378586758811842e-13  -1.3416162229327342e-13 6.1648049094503087e-14 -1.4163819325509196e-14  2.9434186129205684e-12 -1.3525180454239275e-12 3.1074497102915601e-13  2.3848404530356365e-12 -1.0958481182488594e-12 2.5177430564400559e-13  3.3949425006119968e-12 -1.5599959092119363e-12 3.5841361618337867e-13  1.7124027605067510e-12 -7.8685907075957947e-13 1.8078316956619621e-13  2.3309722418327771e-12 -1.0710953605518213e-12 2.4608728727150990e-13  3.3290013134310087e-12 -1.5296955485335518e-12 3.5145201982388141e-13  1.5324017267306018e-12 -7.0414754433635037e-13 1.6177995480752908e-13  4.7931880189398989e-13 -2.2024978921681253e-13 5.0603032322503393e-14  -4.3419402396677002e-13 1.9951469018115283e-13 -4.5839082761221811e-14  -1.4669911008257821e-12 6.7409097966342403e-13 -1.5487437129230361e-13  -2.3432130484186728e-12 1.0767200826777512e-12 -2.4737958360720965e-13  -3.2906222431579356e-12 1.5120601415672899e-12 -3.4740023356834148e-13  -4.0149953879550668e-12 1.8449138327337250e-12 -4.2387434122879936e-13  -4.8334511231324277e-12 2.2209990237251977e-12 -5.1028101223370237e-13  -2.8968429123197438e-12 1.3311162389447694e-12 -3.0582784348558002e-13  3.7275719374264399e-13 -1.7128410783482209e-13 3.9353024018399545e-14  -1.8932375334311655e-13 8.6995370519138566e-14 -1.9987440450871900e-14  -5.2883370368697841e-12 2.4300217581192232e-12 -5.5830459592152509e-13  -5.8406892225955901e-12 2.6838308138016684e-12 -6.1661796772593474e-13  -6.0165594578644246e-12 2.7646442141824012e-12 -6.3518508248277127e-13  -6.2350965647402688e-12 2.8650632912877927e-12 -6.5825665872640564e-13  -6.1536824783012131e-12 2.8276530430216557e-12 -6.4966154492885886e-13  -5.7008538429816549e-12 2.6195756400773667e-12 -6.0185515390249833e-13  -5.6331964524889770e-12 2.5884866739527551e-12 -5.9471237313857074e-13  -5.9060673651569710e-12 2.7138724521885461e-12 -6.2352012188334766e-13  -5.4848666785657655e-12 2.5203282764267794e-12 -5.7905278224714980e-13  -5.0310527151618931e-12 2.3117981094723534e-12 -5.3114236736714168e-13  -4.8998687326838534e-12 2.2515183032656262e-12 -5.1729290584111718e-13  -4.6720576312562017e-12 2.1468377714933981e-12 -4.9324224794199686e-13  5.6887537975506598e-13 -2.6140155985243131e-13 6.0057771811731967e-14  -1.5639430532097835e-12 7.1864096808941006e-13 -1.6510986124352506e-13  -3.8329858007762777e-12 1.7612793642898322e-12 -4.0465907784538881e-13  -3.4829561196597253e-12 1.6004386812602532e-12 -3.6770546117651068e-13  -5.6944654521053357e-12 2.6166401371545020e-12 -6.0118071353269478e-13  -3.8520210400314794e-12 1.7700261679142330e-12 -4.0666868152354916e-13  -4.2555562016824913e-12 1.9554529317799760e-12 -4.4927102206934958e-13  -3.2963014143691716e-13 1.5146697539114299e-13 -3.4799979962590409e-14  -4.4385078058210083e-12 2.0395202625192739e-12 -4.6858573682932423e-13  -3.7418646085395600e-12 1.7194086442095455e-12 -3.9503915762152197e-13  -3.3535370655085324e-12 1.5409698699288260e-12 -3.5404232809163525e-13  -2.2325260556505856e-12 1.0258587629676058e-12 -2.3569404686091066e-13  -1.7451297290214530e-12 8.0189730395340806e-13 -1.8423824756235062e-13  -4.6272793423256631e-12 2.1262618861755887e-12 -4.8851487819738254e-13  1.1144656161550065e-12 -5.1210346032245450e-13 1.1765726563149366e-13  -2.6282056620799539e-12 1.2076758533239615e-12 -2.7746705437570687e-13  -3.5634065335767588e-12 1.6374061163736187e-12 -3.7619883735895146e-13  -3.8899886546209920e-13 1.7874725085905473e-13 -4.1067702924679661e-14  1.5792318801883644e-13 -7.2566627338955452e-14 1.6672394565397009e-14  -8.1672870408452613e-13 3.7529161011656296e-13 -8.6224343481201989e-14  6.2199647405883089e-13 -2.8581101297035492e-13 6.5665914954538801e-14  -1.9710243131862100e-12 9.0569718484877745e-13 -2.0808657335052996e-13  -3.3276045296631352e-12 1.5290537182334677e-12 -3.5130455743794130e-13  -1.1150015913217484e-12 5.1234974404225415e-13 -1.1771385003540091e-13  -2.2338849421844468e-12 1.0264831792672999e-12 -2.3583750832940277e-13  -1.4314001841978827e-12 6.5773674558298894e-13 -1.5111693824900845e-13  -1.9176379382443607e-12 8.8116583372812466e-13 -2.0245042378558719e-13  -9.4234179316279287e-13 4.3301155826597822e-13 -9.9485670142372402e-14  -5.9805624994435396e-13 2.7481034015263601e-13 -6.3138478246681910e-14  -1.1645549317378063e-12 5.3511979340918798e-13 -1.2294533537846154e-13  -2.0042710151959348e-12 9.2097423861938144e-13 -2.1159652107168531e-13  -1.7907958960059884e-12 8.2288117442320903e-13 -1.8905935308717487e-13  -2.9805633161429623e-12 1.3695862535203473e-12 -3.1466644168781862e-13  -5.1223525657875243e-13 2.3537509241259066e-13 -5.4078114905897774e-14  1.5658379149103869e-12 -7.1951166810890391e-13 1.6530990711592439e-13  -1.6979855699104482e-12 7.8023428746840230e-13 -1.7926110625705488e-13  -2.7920354047140991e-12 1.2829565770093963e-12 -2.9476302050335448e-13  -4.3581440141531432e-12 2.0025926308353708e-12 -4.6010150560105014e-13  -4.7695942838221027e-12 2.1916564330682562e-12 -5.0353946633384440e-13  -5.6131488156965953e-12 2.5792746677465102e-12 -5.9259588780858569e-13  -3.5580413680187665e-12 1.6349407914612807e-12 -3.7563242176024360e-13  -4.7605963976895255e-12 2.1875218518328317e-12 -5.0258953421976522e-13  1.8844453751403673e-12 -8.6591365710093437e-13 1.9894619166078603e-13  -2.3323365422572112e-12 1.0717222645658568e-12 -2.4623132029963741e-13  4.5720305890266490e-14 -2.1008747613214905e-14 4.8268211211785302e-15  5.7201381212032212e-12 -2.6284368785614720e-12 6.0389104932388826e-13  7.4017087748958723e-13 -3.4011284161467165e-13 7.8141918676632937e-14  3.4109784444896721e-12 -1.5673645190911953e-12 3.6010657582351253e-13  -3.1972380446616416e-12 1.4691495568922938e-12 -3.3754140141686622e-13  4.7403159636024983e-12 -2.1782028739099066e-12 5.0044847182545669e-13  1.8164306678698622e-12 -8.3466050182978964e-13 1.9176568796092035e-13  2.5679057488761896e-12 -1.1799676909893271e-12 2.7110102315632424e-13  -2.8672776558997625e-12 1.3175308309263246e-12 -3.0270655631651479e-13  -4.3289414884015634e-12 1.9891738996778006e-12 -4.5701851292755853e-13  -5.2373111182178281e-12 2.4065750504514253e-12 -5.5291764635762830e-13  1.0571054455324637e-12 -4.8574612687520614e-13 1.1160159129414772e-13  -1.3238749035245159e-12 6.0832825104822736e-13 -1.3976519232979866e-13  -2.5837684482555245e-12 1.1872566940096610e-12 -2.7277569288812446e-13  -1.2459798459580086e-12 5.7253501710400757e-13 -1.3154159229527920e-13  2.7916456045928319e-12 -1.2827774615768146e-12 2.9472186820960367e-13  4.9644726888932731e-12 -2.2812041985016827e-12 5.2411332697066408e-13  4.8270952155995483e-12 -2.2180784470883813e-12 5.0961000122171142e-13  3.4504781901113876e-12 -1.5855148829261292e-12 3.6427667492358580e-13  -3.4137990814782840e-12 1.5686606182630702e-12 -3.6040435839356984e-13  9.2866089168443844e-13 -4.2672510412523296e-13 9.8041338943649125e-14  1.2888145481727853e-12 -5.9221781297325053e-13 1.3606377213077530e-13  -4.9366290496755533e-12 2.2684098836438059e-12 -5.2117379576566443e-13  3.0422708408957458e-12 -1.3979412215837486e-12 3.2118107841241221e-13  3.8871192926172223e-13 -1.7861540199895997e-13 4.1037410264002046e-14  -1.6607434166577371e-12 7.6312130051383681e-13 -1.7532934752495456e-13  -5.3264454126141990e-12 2.4475327793684145e-12 -5.6232780419529359e-13  5.9488100312320038e-12 -2.7335129569139849e-12 6.2803258520504139e-13  -4.7995222709104853e-13 2.2054085179475759e-13 -5.0669904799848323e-14  5.6801944365545079e-12 -2.6100825221505429e-12 5.9967408233371004e-13  -6.1618791086289643e-12 2.8314194425345517e-12 -6.5052688621689482e-13  -6.9808870606447876e-13 3.2077583803888489e-13 -7.3699185630461150e-14  6.0094185361984376e-13 -2.7613629189660799e-13 6.3443119532364340e-14  3.9504455706513785e-12 -1.8152528146410829e-12 4.1705963569560665e-13  -2.3108704661346648e-12 1.0618584772021628e-12 -2.4396508634517055e-13  1.5456657586348236e-13 -7.1024244447280703e-14 1.6318027591432449e-14  -2.3936975780133127e-12 1.0999180189114077e-12 -2.5270937720756369e-13  -4.2809202790177068e-12 1.9671078734694857e-12 -4.5194877896132363e-13  6.1021314122636614e-12 -2.8039650270627410e-12 6.4421915408032572e-13  2.1837198321336224e-12 -1.0034320181797864e-12 2.3054143674753890e-13  -4.5503046461565913e-12 2.0908915636694087e-12 -4.8038844330088571e-13  -3.3363208934859096e-12 1.5330589383231393e-12 -3.5222476845097826e-13  -3.5446149193973496e-12 1.6287712598945815e-12 -3.7421495386438538e-13  -2.1645546595046655e-12 9.9462550941119209e-13 -2.2851811563812835e-13  -1.0827781146303492e-17 4.9754286828217654e-18 -1.1431192708534116e-18  -7.8218808222781798e-13 3.5941999261836153e-13 -8.2577793007179606e-14  2.3450970823381297e-12 -1.0775858072685621e-12 2.4757848636033815e-13  -2.1066530998248076e-12 9.6801940452980280e-13 -2.2240528533723977e-13  2.8715600433431250e-12 -1.3194986129703808e-12 3.0315865998813731e-13  -1.5787067328027686e-12 7.2542496509843763e-13 -1.6666850436933367e-13  -3.0283354865604535e-12 1.3915378448689572e-12 -3.1970988391082389e-13  -7.3729068770467053e-13 3.3878937758504110e-13 -7.7837848950585931e-14  2.4194243860169301e-12 -1.1117396374617922e-12 2.5542542859511141e-13  -1.2407337859926246e-12 5.7012442190718050e-13 -1.3098775100855073e-13  6.1971181223696094e-13 -2.8476119751827957e-13 6.5424716788388734e-14  3.9707097630666850e-13 -1.8245643294209838e-13 4.1919898341100880e-14  1.9664658173236155e-12 -9.0360252937330930e-13 2.0760532013750065e-13  5.8759119946645155e-13 -2.7000158833068873e-13 6.2033653471402079e-14  8.2979783592811442e-13 -3.8129695253672884e-13 8.7604088441122053e-14  1.2937844997189385e-12 -5.9450153473866565e-13 1.3658846387609701e-13  -3.1177242338137615e-12 1.4326124963599920e-12 -3.2914690505135420e-13  -2.3685175729575843e-12 1.0883476595095058e-12 -2.5005105334319411e-13  2.9191589692622751e-12 -1.3413705974600651e-12 3.0818381230280889e-13  -9.2324158722071357e-13 4.2423490206948064e-13 -9.7469207748586992e-14  -9.6641736454159861e-13 4.4407442394223247e-13 -1.0202739584111497e-13  1.4051915399332550e-12 -6.4569372045621882e-13 1.4835001805390775e-13  1.1206699347518383e-12 -5.1495438095771136e-13 1.1831227297369265e-13  -3.3058298617779188e-12 1.5190481311523131e-12 -3.4900574458425503e-13  3.9309393229163125e-12 -1.8062895798689793e-12 4.1500030632916425e-13  -1.8896481239811658e-12 8.6830435058303019e-13 -1.9949546047043107e-13  -2.6980881615981966e-12 1.2397872700428931e-12 -2.8484474614979483e-13  3.0485563678511748e-12 -1.4008294579341265e-12 3.2184465914914257e-13  3.6848130296796879e-12 -1.6931931104797579e-12 3.8901606218339535e-13  -3.6688961913946217e-12 1.6858792303160099e-12 -3.8733567685524088e-13  1.0466241533828418e-12 -4.8092991191023477e-13 1.1049505183996162e-13  4.8215568055432128e-13 -2.2155335153171180e-13 5.0902529571466985e-14  7.0005394834253280e-13 -3.2167887834481705e-13 7.3906661778121049e-14  2.9000208660861839e-12 -1.3325765272631778e-12 3.0616334899157550e-13  -4.0659238565767049e-12 1.8683157615433772e-12 -4.2925100271925830e-13  2.4729190387702418e-12 -1.1363207428692731e-12 2.6107300935276269e-13  -2.5496825932069610e-12 1.1715940445161380e-12 -2.6917715342347795e-13  -1.3784848177358975e-12 6.3342182561003902e-13 -1.4553051437234783e-13  2.4559302501516925e-12 -1.1285142952659259e-12 2.5927945521679368e-13  -3.5559516062575303e-13 1.6339805337254963e-13 -3.7541179974096893e-14  7.3398280056447480e-13 -3.3726938412243903e-13 7.7488626013340207e-14  </DataArray> 
</PointData> 
</Piece>
</UnstructuredGrid>
</VTKFile>