<?xml version="1.0"?>
<VTKFile type="UnstructuredGrid"  version="0.1"  >
<UnstructuredGrid>
<Piece  NumberOfPoints="201" NumberOfCells="657">
<Points>
<DataArray  type="Float64"  NumberOfComponents="3"  format="ascii">-1.21333388292658 -0.02120412430413906 2494.782796200016  1.209108845533984 0.00155582161071494 -2494.785704185313  1545.862552097924 0.02824322801336606 -2376.720709188563  2939.299389983893 0.02588788587910393 -2025.637929832459  4045.042009002357 0.001387678707317438 -1475.433942999818  4754.776535365701 0.009325126593153665 -780.0551375855174  4999.001195936634 -0.003932426348875548 -8.437735891901214  4753.828789863002 -0.01595206238151598 763.2578828097144  4043.335903690581 -0.007712699508047585 1459.439280509602  2937.127727806216 0.002781752288539029 2012.48006584367  1543.504385666908 0.0008536837412304955 2369.124109664896  1958.075580011598 -1510.117329181981 -2174.202454432609  1943.181608311423 1172.861050919046 2218.801611957591  4758.606882852522 -1343.735334339772 -378.3365107235759  3425.039349381092 -1466.436000279383 1657.448165090432  4327.36420633886 1359.063756314512 1042.036075204249  4310.587327146502 1359.217477504643 -1076.210362228462  2186.319561958081 1351.67347134209 -2146.174310111579  751.8694222435851 -1351.605187970596 2371.173943958414  3404.598932317115 -1351.488187607973 -1706.768687197622  2370.156729845666 -2651.812709443886 -1761.646856137542  3521.101891935282 -2598.836783940069 -1216.862985815468  2414.591318649338 -3715.175130882765 -1167.102579818025  3401.767638314003 -3486.245313903869 -578.4965874317461  2134.689717178868 -4422.923800481557 -490.1334525619319  3039.164969400918 -3968.962475866268 117.9301498660234  1596.434370823057 -4725.392912287723 219.3540109932542  2315.265423207228 -4105.136543909222 838.0670805772876  833.9162541408195 -4600.472675606919 894.1231196627066  1481.255903618934 -3752.598406646644 1476.27612741626  -58.06522280686575 -4031.16770986798 1482.231724266011  3550.523203398621 -3224.581938450303 704.3872761237974  3402.787851979091 1351.233344267566 1692.605568481068  3448.392909660033 2615.644158813714 1245.125517987232  4176.585259531716 2506.230561922499 559.4074686288217  553.4549467427676 -2995.424300382741 1980.306642728152  2028.76852115002 -2626.461580539376 1864.017518844473  2368.263484954897 2500.247497933161 1805.888996205479  2282.565010074442 3657.498333702644 1264.6676051297  4767.272010151854 -1310.934304813635 362.0548165588735  4203.671113748121 -2709.210420396326 35.76266260482607  4338.141789183289 -1360.473715598482 -1047.637241638181  754.108403279874 1351.700331591607 -2374.871943127532  3370.73266817002 1317.598751616114 -1730.001950324216  3423.219998664183 2601.937704618852 -1283.299226137848  1036.155289263889 -4463.342972531022 -1010.533860470978  -724.9668033140933 -4655.234863975732 849.2062421391915  1011.638257427616 -2720.052937853932 -2036.689958412363  4148.645270705203 2536.345137834441 -592.7677451095003  3102.657365351964 3664.409697585939 -710.3520587584412  2203.31052415545 3566.753900852584 -1369.417457857887  1739.493344782092 4441.73602504193 -763.1246195073895  768.7811893923925 4171.090284982493 -1330.064903015919  225.1170367258391 4808.749070809459 -690.1731050153371  -787.3019187972218 4291.432845403216 -1224.992744445814  -1299.678717655203 4722.549554997139 -517.9927097526137  -2290.260625905345 4033.1018490031 -935.9702403531988  -250.029483423409 5001.47703614144 46.50036595652993  -1597.30542992641 -3875.230407968951 1369.775046475378  -2206.019165106645 -4285.132873995692 680.6612915523561  -2689.433049532623 4191.086973631908 -249.5370278752521  -3552.157003192318 3278.146090874406 -638.5157218092172  -3784.113235084506 3270.869995556969 64.06035237845833  -4438.342213311962 2157.858391653569 -395.3432497690272  -4499.587536344766 2048.334639704547 383.633936185957  -3942.452213383688 2045.36971845202 -1139.867271577631  -3639.197684319671 3026.961073373899 815.614863887675  -4695.042176536173 894.5274391874684 -723.4150476514983  -4157.052171683998 1684.040835968842 1112.17714909681  -3995.914407529169 574.3207499616713 -1464.018332645202  -4487.531221641801 -649.6846649380319 -1042.550872223296  -3092.884713120695 2538.834421683648 1505.318605985397  -691.4949506245172 -2075.62764970896 2246.55361589707  -3012.650748045722 -3313.8931075788 1120.408401295564  -3590.558583112549 -880.1905390622163 -1672.5751926896  -3879.751421943681 -2065.768130367398 -1183.325745249748  -4803.62167247178 567.7683929369311 639.7617129249793  -1670.666478366952 3340.383394410867 -1659.334864591864  -3420.840120619595 1084.142635045331 1745.810396736047  1074.525513548868 3375.485149468634 1762.538358461412  -4627.867339588128 -1692.139234048222 -415.4105825589584  -2908.654840178165 351.6167418645421 -2015.251771998156  -2268.005514688603 1932.034623292691 2010.497791878336  -2795.413894576177 -2222.573101915763 -1741.992051111747  -2927.693635084752 -3309.155686867611 -1166.898435332856  -2468.301535153243 3726.839453213787 1129.157640967647  -1260.278588707007 -4836.159129046876 162.9020467314691  -2388.541122545676 325.3100679627964 2191.972334712906  -3528.685704800971 -469.9157831190122 1760.366992420159  -1689.48839565617 -3319.024520803492 -1665.144827589903  -1695.596455604436 -4231.074457302224 -1030.816877446176  -1455.301228211498 -2101.875936248785 -2142.156505137281  2535.164998745232 4314.446221831201 -74.76670511716479  -3409.275777415598 -3554.175832896761 448.6782387800081  -4104.90354305446 -2400.300949143819 781.9081351484297  895.0544052993648 4345.734685027918 1156.9613012722  -323.7440606547677 3919.683483376224 1547.146340232381  -112.7713676042356 2953.683723423369 2015.611584377735  -1355.241762179995 1248.064388031201 2323.385756126069  -2259.263960875233 -2710.455746850772 1775.562981641028  1179.530943904213 3300.227063092447 -1786.11258582916  -2802.243139490246 -4000.917897568019 -540.3720731007159  -369.2927503109073 2531.786474115968 -2144.794454050093  -819.1134877175322 1085.549528485724 -2399.073654594969  -556.6165475652838 4678.489866766045 848.7703262757882  -1057.291671107654 -768.4575882629093 2411.045986733867  -360.8571312357234 -4104.453297600693 -1419.418763983309  -2283.068055185391 -1234.777897320295 2138.71160118164  -3518.972001118911 -1987.603856859811 1478.203669138488  -4380.535429232971 -955.2236490451552 1113.437668729953  -4792.532985287061 -1239.918443050437 358.544837792318  -4977.344186609586 -161.2408986463587 -208.5270007882621  -1919.041376510243 2150.88642161546 -2035.763323305362  -2911.322581064791 2378.845322787062 -1640.775738128666  -425.0142922168812 -4714.027779401131 -816.3849147383899  -169.4932470583129 3700.845101615594 -1680.239354354423  1993.624058623624 4402.902825580409 648.7163118923934  4307.900212633849 -1300.18361310804 1079.798562724682  250.8882481207512 -1418.521697174827 -2390.319987629409  790.4792488824274 -4885.192790754775 -386.0214972658161  -1523.068177001512 3199.593791914556 1767.371504279342  4778.942262048428 1259.866727040058 -386.2708847854734  3194.091391704852 3630.845595837763 636.8852565719113  3768.284236412277 3290.643512799671 -34.90577727319981  -3816.712372129233 -2976.041608401635 -624.8288830822227  -1656.746912736966 4709.496683116491 197.2470554825245  -2779.428402700001 4061.316178648277 461.6143722543423  -270.3704301810851 -3062.356291184399 -1970.247751328438  -1163.652368454918 -558.9202391834178 -2407.385291927235  -2454.597268720894 -896.9352346703008 -2121.582223888525  1155.212726016784 4866.347846428125 -129.5434836066562  135.2987019733504 -4975.801304993782 277.3516712756257  2760.072097275029 -3164.168679446697 1353.129353241507  4786.97641754843 1275.919622813343 327.4568773682877  2185.435978127088 -1341.71691263044 2137.292814224836  -4228.494069591995 -2668.782560965217 68.7981835255804  -895.5562152559679 -3304.816761491684 1824.16618177596  2436.543402244851 2424.264156151056 -1819.817951620364  -4283.7602291121 399.1964351614711 1280.158523869086  1122.909079269731 -3729.842509911097 -1572.046453159993  1223.586913812452 2405.260507220649 2099.444610145655  712.1991944323867 4844.553906104816 523.6898004755147  -3108.865643315311 3139.325621908707 -1166.201880500682  4181.261649531517 -2413.733792270804 -659.9987521270737  -77.64006967760425 1302.903501509687 2409.047363092709  3786.244802268972 -2349.103219122153 1126.857681242856  -4853.684409211002 1193.332220072973 -48.63518375507721  -2584.467758016496 -4287.073587001372 28.44244453971082  -1578.266116628902 -4679.418235240097 -411.2241902708952  4484.965416155836 2211.991675178813 -24.9754815166664  -1116.718710852857 2467.872545262408 2101.941550777711  1389.421587739004 2241.104316668343 -2124.96849688175  -1684.07407240635 367.9843484494377 -2337.796238950231  -1828.335057990438 4382.080669855393 796.727371430187  4251.720946445693 -2244.756578222841 679.3478534860699  -340.5416505435512 -4971.655498919191 -250.2079688018526  -3204.956127742924 1301.869187074486 -1795.150102992367  -2189.901999181358 1106.511091164217 -2169.156872398939  -1398.564357567967 4029.50919969701 1311.618308312126  -3515.523294658815 -3549.758874732137 -133.7812486960588  -0.002727561636886051 0.0150178766343023 -0.003742962577254458  -1594.277359886009 -1960.560933922134 72.81724527930182  2410.603644951165 764.5536861232964 -17.01518866400189  -960.7063753453082 2060.80827157254 551.9757681330057  1796.495795420077 -1460.816485540576 495.8192380560819  -1169.841951765254 213.8232586739576 -1107.803071190454  -2479.309928032674 389.1129614591293 6.690112613865005  473.9858514357231 2331.033631632062 -478.4658009545324  1675.054802718855 -1148.709483097126 -751.4542427354277  -1303.261011225097 -218.2550353472174 1080.563007272813  1248.526812163704 1734.375386531345 865.8485034821383  -460.6704428418751 -1979.336849456974 -942.691347384809  412.5852400896113 -2858.580196956929 3.686404602302616  995.2939553993069 759.
[...]
<PointData  Vectors="Self-Gravity"> 
<DataArray  type="Float64"  Name="Self-Gravity"  NumberOfComponents="3" format="ascii">-3.2414665430215804e-05 -9.3770479307784565e-06 -5.5425400549391002e-04  -2.1430070163404654e-05 -3.6407061263640011e-06 5.7393574710638427e-04  -7.3527379551213934e-05 3.2942385841234042e-06 5.2685711129442814e-04  -1.6880044224541771e-04 1.1741917598573779e-05 4.9456879690772159e-04  -1.7810363120544554e-04 -1.5568727841189459e-06 2.4934678794204701e-04  -2.5966824979426005e-04 1.9374986032846344e-05 1.7602892075930038e-04  -2.9189254736899890e-04 -5.9608627315759684e-06 3.3798516502231085e-05  -2.8164725149168072e-04 -1.8818089143712369e-05 -1.5029719358655776e-04  -1.9142399959878059e-04 3.3598617266184612e-06 -2.7967135557074749e-04  -1.6648551461008744e-04 3.4239758781308663e-06 -4.6389098022132192e-04  -8.6921418177048860e-05 2.4425199036816973e-05 -5.0757927233926385e-04  -8.3871316074341678e-05 7.2998055020968692e-05 3.8985883573520406e-04  -1.1109358063930731e-04 -7.3319280711830049e-05 -5.1825330405562040e-04  -2.5554813988766425e-04 7.5151184433387073e-05 6.0661467415060637e-05  -1.8120203192713269e-04 8.3720532997983089e-05 -4.1309907623050492e-04  -2.1185939165614364e-04 -7.0530886411006842e-05 -2.4515231895908045e-04  -2.2008585297898846e-04 -7.7841237694001243e-05 2.6324524093606304e-04  -1.0563873395822565e-04 -6.8050420549257799e-05 4.6489065629407825e-04  -3.7837002277392824e-05 6.5388167704937155e-05 -4.5294966406382288e-04  -1.9449494896587151e-04 9.4005650701289338e-05 4.1637635039131062e-04  -1.3110904070845936e-04 1.5717490689611248e-04 4.0656133494742694e-04  -2.0713163403376399e-04 1.7475527467202863e-04 2.7785851327437626e-04  -1.3439597387470147e-04 2.2153656028690532e-04 2.2915670278188057e-04  -1.7840403647286377e-04 1.9281270330740005e-04 9.2791667436188619e-05  -1.1024105937815413e-04 2.4355518794917609e-04 1.0919034327733814e-04  -1.7531171978774093e-04 2.4812706002083705e-04 -5.6011823596861923e-05  -1.0733382318646779e-04 2.8197288747719705e-04 -6.1835288003055764e-05  -9.7699986509915018e-05 1.9458348448860257e-04 -1.5999590294228858e-04  -4.1197407280213419e-05 2.5484780285542515e-04 -2.0491105339130015e-04  -6.8389985158478678e-05 1.8318926180059517e-04 -2.5423712095342451e-04  7.4623639116888004e-06 2.4272069430197763e-04 -3.2596479132549860e-04  -1.9795208345470416e-04 2.1020724671863550e-04 -1.7007820938372826e-04  -2.1881633912876014e-04 -9.5303503052466415e-05 -4.2240112178358532e-04  -1.8604063141514711e-04 -1.5665929385865967e-04 -2.6213906501605931e-04  -2.1924972388846295e-04 -1.2709970501382402e-04 -1.5952905710437870e-04  -2.4382918058081685e-05 1.7016101945263248e-04 -4.7374779355277829e-04  -1.1459832093166674e-04 1.5727061268530469e-04 -4.6014655882431536e-04  -1.5752928489070971e-04 -1.6260814000554409e-04 -4.2334545296623922e-04  -1.5112098450471051e-04 -2.2696053562620518e-04 -2.7003065131038750e-04  -2.8896369528455410e-04 5.9766607908210868e-05 -9.2309235922657021e-05  -2.3727048669139268e-04 1.6324427662974846e-04 -2.2110844150450862e-05  -2.4751682950244230e-04 7.0629752447198019e-05 2.6594333420546537e-04  -3.0475718516805067e-05 -9.2159136772978803e-05 5.7493256952744962e-04  -2.0127619070345451e-04 -8.0410593861062360e-05 4.1950462497863732e-04  -1.8085761149151970e-04 -1.4414968686541892e-04 2.6343592562092411e-04  -5.6593773807918761e-05 2.0741900987905938e-04 2.1088066526521164e-04  2.9055947513658048e-05 2.9219276923114702e-04 -2.1732256968111678e-04  -5.5048009158065750e-05 1.5005466182877638e-04 4.4281549348047740e-04  -2.4316734270516787e-04 -1.4487870647710732e-04 1.5554383116671996e-04  -1.8758157463195029e-04 -2.0102179034745880e-04 1.5186542974280858e-04  -1.2318222255943253e-04 -2.1991088436640687e-04 3.0539678379536969e-04  -1.3008192946391275e-04 -2.6347843500585820e-04 1.8207382360957357e-04  -3.9053449103187155e-05 -2.5619699216422018e-04 3.3762380394786629e-04  -1.4060374973762795e-05 -2.7640068818780269e-04 1.7220974959457539e-04  5.1255707371353281e-05 -2.6491780713969838e-04 2.6891667130647868e-04  6.1286335388935126e-05 -2.3215119683513017e-04 8.1122920797001879e-05  1.2171333447942867e-04 -2.4665182849158975e-04 2.2684262688086937e-04  1.3027156447318664e-05 -2.6813386738445684e-04 -2.2435141402016609e-05  8.8297108212350713e-05 2.1954522119151541e-04 -2.8113446567450069e-04  8.3698544724402436e-05 2.0090896208691496e-04 -1.2733575528490419e-04  1.5524794091667420e-04 -2.4458300850945506e-04 5.7192006259677276e-05  2.0955925708759075e-04 -1.9064939017910654e-04 1.5002382239214041e-04  1.6109284308160702e-04 -1.4337898630370789e-04 -3.3108905375798708e-05  2.7022567754231698e-04 -1.4641450320504026e-04 8.5107804834741858e-05  2.5455269356213845e-04 -1.1902665750871579e-04 -1.0233528471969062e-04  1.8357628185325356e-04 -8.2269158524994029e-05 2.2019934091491199e-04  2.1776956129161701e-04 -1.5344718310714565e-04 -1.8323067338446572e-04  2.4936728735568109e-04 -4.1508345092793645e-05 1.6584694554458700e-04  1.9905569160326336e-04 -7.8503383670106255e-05 -2.2634400392570881e-04  2.3489868649492629e-04 -1.7542348585121796e-05 3.0247344868790415e-04  2.5670633669596830e-04 3.1413371551602967e-05 2.1843060764536291e-04  1.9776134746591313e-04 -1.7228596403495676e-04 -3.6357643613402788e-04  5.4423855505474002e-05 1.2407539712396766e-04 -4.9932124527708559e-04  1.6449921113300379e-04 2.0348730764256396e-04 -2.5865446762253811e-04  2.3890244907552022e-04 6.1972132621178331e-05 4.1888856732916972e-04  2.1274910072759204e-04 1.0856556562439545e-04 2.8997023157593748e-04  2.8766455767086980e-04 -1.4686307862000446e-05 -1.3800595899800795e-04  9.0290713374564042e-05 -1.7122316970066899e-04 3.2542330868846583e-04  1.8452574315209853e-04 -6.9705111119898558e-05 -3.3174312796281240e-04  -6.7058664108825747e-05 -1.8874298958825532e-04 -4.0033650004247406e-04  2.7627900370087759e-04 9.8810483002237663e-05 8.2007414892611196e-05  1.8383212310088101e-04 -1.0475446317786412e-05 4.8004180798293171e-04  1.3724260434302393e-04 -9.9218159789599952e-05 -4.6535848105111802e-04  1.1494645693399441e-04 9.8896478616846794e-05 3.4002201078878609e-04  1.5530052152010594e-04 1.8098084292746838e-04 3.0787129171421228e-04  1.6540878893847637e-04 -2.1957560749797362e-04 -2.5411139017045151e-04  7.7428549478332414e-05 2.6276102971622929e-04 -4.9058385393765434e-05  1.5004526422127262e-04 -2.1653767416690139e-05 -5.1254538320936885e-04  2.1745714827706565e-04 2.1196237221070795e-05 -4.1032909250834730e-04  8.6753481038171672e-05 1.9579582472936764e-04 3.7548303734951375e-04  8.8549427109189767e-05 2.1890355593719396e-04 2.0498674316061472e-04  7.2821518163213020e-05 1.1966727425526297e-04 5.1736898312582016e-04  -1.4232531229276872e-04 -2.2740237827439006e-04 -2.0686147208059553e-05  1.9389551747611586e-04 1.9841072641384495e-04 -1.2945476361733092e-04  1.9123412038993292e-04 9.8330196602429624e-05 -1.5699646203642137e-04  -6.1073470856899453e-05 -2.4503660500312151e-04 -2.7977555338633492e-04  9.0131723886683968e-06 -2.3832726691622977e-04 -3.7684766651191546e-04  1.8242020290884477e-06 -1.3214628909175878e-04 -4.0836360924259872e-04  7.3642624553249176e-05 -7.1366747106269422e-05 -5.1425135448150488e-04  1.3310471955577902e-04 1.5105673367595102e-04 -4.1858671453242561e-04  -7.2947214789582094e-05 -1.9034501601854190e-04 4.3583879733434929e-04  1.7234036617042844e-04 2.2435931275449151e-04 1.6410186739315447e-04  2.6997173937620853e-05 -1.3187712665838094e-04 4.1713844060801091e-04  5.2190827212814056e-05 -9.3558004237083802e-05 5.8200030624457673e-04  3.3352607298394178e-05 -2.8499263834297974e-04 -1.9093148302548271e-04  5.5080655335727898e-05 1.7084208360669885e-05 -5.8962046740480823e-04  2.4636870902056786e-05 2.4548507550331301e-04 3.3867889975867341e-04  1.2806772993581743e-04 5.3142784227364390e-05 -4.5306452832434883e-04  2.0244866289430267e-04 9.5003256190754237e-05 -3.7227613396262777e-04  2.1646193017143438e-04 5.0017221547505038e-05 -2.1317118436031197e-04  2.1188647090439607e-04 6.4675491180344295e-05 -8.5993907264952891e-05  2.8702999244051752e-04 2.0071932079871688e-05 6.7204799254686119e-05  1.1051324502031517e-04 -1.1894768527759170e-04 4.7812290530549359e-04  1.7149973429864197e-04 -1.6564006223097397e-04 3.7289523611257457e-04  1.1401751120686658e-05 2.8556107730372959e-04 2.2912734240322573e-04  1.9818301318712659e-05 -1.6832494873918077e-04 3.2109123338679282e-04  -1.1747269771389105e-04 -2.6245781787631231e-04 -1.4018895204543868e-04  -2.5217249657858028e-04 7.1016156538021639e-05 -2.1616989645989487e-04  -3.0956259353284223e-07 7.4608467317169365e-05 5.0737919147919054e-04  -3.8618066617506699e-05 2.9830443798026154e-04 1.0470606006860697e-04  1.0320397175824811e-04 -1.7756718717371696e-04 -4.2726671722652848e-04  -2.9792772397408448e-04 -7.2958683426424545e-05 1.0714367751721184e-04  -1.9231742764021342e-04 -2.0992812434338703e-04 -1.4700778382015727e-04  -2.1229467992981958e-04 -1.9859792574967999e-04 -4.7374478492046520e-05  2.2830437089771491e-04 1.6770302838282333e-04 1.3787165728366252e-04  1.1277758612870409e-04 -2.8035385448698334e-04 -3.5055900899467476e-05  1.5505506680579828e-04 -1.9379864303920044e-04 -9.0766962122387150e-05  2.5070006038586940e-05 1.7972715541350324e-04 4.5718434537844629e-04  5.5667340764135626e-05 3.8590158567040447e-05 5.8459278760136194e-04  1.0755594126783717e-04 5.7544710718760093e-05 3.9649900888328145e-04  -7.0489722374220671e-05 -2.9454026974229971e-04 3.7417117899615470e-05  -2.9553407116452075e-05 2.9168941301569047e-04 -7.8566196410148094e-05  -1.6773362521208031e-04 1.7679067030686830e-04 -3.0642689627964333e-04  -2.9363433625004373e-04 -8.1592294632388596e-05 -7.1848631496455761e-05  -1.1668658129492708e-04 6.8599873017145119e-05 -4.6839679354121510e-04  2.4942057130753696e-04 1.5088661796193919e-04 -9.6385887439159389e-06  3.2138019354876686e-05 1.4777196237479375e-04 -3.5131174643515282e-04  -1.4048745128113181e-04 -1.4706117542092969e-04 4.2539986284605022e-04  2.5876212289949418e-04 -1.5772957295993887e-05 -3.0136531652310493e-04  -6.5708854738458412e-05 2.0130184532049974e-04 3.2669348632824365e-04  -6.2229861355146080e-05 -1.2505853587146802e-04 -4.7856405394542095e-04  -3.9269559801741955e-05 -2.5325839816002071e-04 -1.1757195257288287e-04  1.8307015560620194e-04 -1.9324262456480945e-04 3.2219782061228681e-04  -2.5474682188646218e-04 1.5617988514335441e-04 1.0675886296426208e-04  -1.6928598350749994e-05 -7.8313305540655921e-05 -5.2704563725453036e-04  -2.2132217989840683e-04 1.2621514033636002e-04 -2.8595884859433386e-04  2.8848128992658431e-04 -7.3477240500549110e-05 2.3131777895500367e-05  1.4279597690053993e-04 2.5306890057143959e-04 -4.7221132485507720e-06  7.4192777777140108e-05 2.0985501802751668e-04 1.0045698577586113e-04  -2.5232478129059689e-04 -1.3532792044267130e-04 -2.9154406878568248e-05  5.6579868677665778e-05 -9.4231204297486317e-05 -4.6274207114611372e-04  -5.9022767881840394e-05 -1.4324831855152715e-04 4.9837852649794025e-04  1.3708531593312342e-04 7.1362671296661375e-06 5.5454250987181728e-04  1.1833432087229431e-04 -2.5554703748256080e-04 -1.5493190454817293e-04  -2.7028902287632822e-04 1.3981138403889527e-04 -1.5822023215025650e-04  2.7881086620593818e-05 2.7896265097832214e-04 2.0192276835630370e-05  2.0388319255027219e-04 -8.0772470126284289e-05 4.6300577694555716e-04  1.2796315370175679e-04 -5.6519913139378732e-05 5.3633409591759133e-04  9.5626716287026988e-05 -2.4896766818874072e-04 -2.9203245564723090e-04  2.2001485439931837e-04 2.2872324994949850e-04 1.4535091415271380e-05  8.2562157564169442e-06 3.5365718865813194e-05 -1.9503707663251026e-05  1.2588496374704215e-04 1.3613846929985777e-04 -3.7704164502908816e-05  -2.0753053011645720e-04 -4.8038245408077814e-05 -1.8917195851073347e-05  9.2830009508937424e-05 -1.5805719640436006e-04 -2.0358892017679459e-04  -1.4163156315099253e-04 1.0746274316692466e-04 -1.5548439638730151e-04  7.3808545473152550e-05 -2.8881077835559934e-05 3.5396552106907897e-04  1.8221521508411361e-04 -3.2437707807044348e-05 -2.0516987440573272e-05  -3.9205806424695624e-05 -1.8992389358105127e-04 2.0061614708438691e-04  -1.3101379777205664e-04 9.3092217277575539e-05 2.0247030111967160e-04  9.8494330418657952e-05 3.0078399226950017e-05 -3.3606020078463128e-04  -1.0928261794178058e-04 -1.4604236559481769e-04 -3.3907770395162021e-04  4.0515534168779536e-05 1.2727972576191934e-04 2.4560237071976818e-04  -2.9545944323824194e-05 1.7665934682277069e-04 1.4672384144564512e-05  -8.1962404184191771e-05 -7.0579866061413424e-05 4.4840687623663960e-04  3.5461157439380812e-05 1.3556659578035265e-04 -2.8308969171702268e-04  -5.6933750933230418e-05 4.6518153586555804e-05 -4.3225439369051793e-04  1.1476299856909785e-04 -1.4295828464759618e-04 1.3147514055428231e-04  1.8440842785422785e-04 8.7868322452670474e-05 1.5532458192374070e-04  -1.7784488079235677e-04 -2.2726655842669420e-06 -2.8517076657176712e-04  2.2827844566606246e-05 -1.0788666696765278e-04 -4.5038153488922224e-04  -4.5813160126614384e-05 -2.3910956291563592e-04 -1.6436108742558911e-04  -1.6534790894322506e-04 -1.5080688619229808e-04 2.6888655172168204e-04  -1.4470927070954988e-04 -1.9009093760654743e-04 -1.4053790088309120e-06  1.9125466784786975e-04 -7.9648211444417863e-05 -3.0972991120052109e-04  -2.4720147522120398e-04 7.6945173160194275e-05 3.2063475483426572e-05  3.7429201317393166e-05 -1.6031796835987413e-04 3.9740007950589445e-04  2.2299037987606640e-04 8.1997799132682128e-05 -1.8578420390994029e-04  -2.0786367246765567e-04 -2.2296856594192003e-05 2.5424783831776409e-04  -1.6954564308741926e-04 1.9877962759590081e-04 5.2134527032751797e-05  2.0606025906063535e-04 -6.5960962330829850e-05 2.6660951912056615e-04  -5.0216538674104063e-05 6.5946417119227527e-05 4.1238187146326697e-04  7.8456376262359061e-05 2.3293583112729164e-04 1.6643351628385514e-04  7.1390753560570747e-05 2.4830072790512253e-04 -1.5973174361692697e-04  -8.3659242680049972e-05 2.1585920497521049e-04 -2.2894978633315554e-04  1.8091750790930134e-04 -1.8177066516968091e-04 -4.8199622434178340e-05  -7.2694738903765558e-05 2.0760706877289049e-04 2.9446257618450327e-04  6.0203658218793766e-05 -2.4092364718443791e-04 4.1999592901130280e-05  1.2274031784804813e-04 9.0676748486713077e-05 4.2779561896334907e-04  -2.1884365095319036e-04 -1.2913991362805319e-04 -2.0361971803329438e-04  -3.2414859981336717e-05 -9.6714824091564611e-05 -1.6513325867646269e-04  -7.5634205690285349e-05 -4.7902177120486182e-05 2.1475955605139432e-04  </DataArray> 
</PointData> 
</Piece>
</UnstructuredGrid>
</VTKFile>