<?xml version="1.0"?>
<VTKFile type="UnstructuredGrid"  version="0.1"  >
<UnstructuredGrid>
<Piece  NumberOfPoints="201" NumberOfCells="657">
<Points>
<DataArray  type="Float64"  NumberOfComponents="3"  format="ascii">-1.21333388292658 -0.02120412430413906 2494.782796200016  1.209108845533984 0.00155582161071494 -2494.785704185313  1545.862552097924 0.02824322801336606 -2376.720709188563  2939.299389983893 0.02588788587910393 -2025.637929832459  4045.042009002357 0.001387678707317438 -1475.433942999818  4754.776535365701 0.009325126593153665 -780.0551375855174  4999.001195936634 -0.003932426348875548 -8.437735891901214  4753.828789863002 -0.01595206238151598 763.2578828097144  4043.335903690581 -0.007712699508047585 1459.439280509602  2937.127727806216 0.002781752288539029 2012.48006584367  1543.504385666908 0.0008536837412304955 2369.124109664896  1958.075580011598 -1510.117329181981 -2174.202454432609  1943.181608311423 1172.861050919046 2218.801611957591  4758.606882852522 -1343.735334339772 -378.3365107235759  3425.039349381092 -1466.436000279383 1657.448165090432  4327.36420633886 1359.063756314512 1042.036075204249  4310.587327146502 1359.217477504643 -1076.210362228462  2186.319561958081 1351.67347134209 -2146.174310111579  751.8694222435851 -1351.605187970596 2371.173943958414  3404.598932317115 -1351.488187607973 -1706.768687197622  2370.156729845666 -2651.812709443886 -1761.646856137542  3521.101891935282 -2598.836783940069 -1216.862985815468  2414.591318649338 -3715.175130882765 -1167.102579818025  3401.767638314003 -3486.245313903869 -578.4965874317461  2134.689717178868 -4422.923800481557 -490.1334525619319  3039.164969400918 -3968.962475866268 117.9301498660234  1596.434370823057 -4725.392912287723 219.3540109932542  2315.265423207228 -4105.136543909222 838.0670805772876  833.9162541408195 -4600.472675606919 894.1231196627066  1481.255903618934 -3752.598406646644 1476.27612741626  -58.06522280686575 -4031.16770986798 1482.231724266011  3550.523203398621 -3224.581938450303 704.3872761237974  3402.787851979091 1351.233344267566 1692.605568481068  3448.392909660033 2615.644158813714 1245.125517987232  4176.585259531716 2506.230561922499 559.4074686288217  553.4549467427676 -2995.424300382741 1980.306642728152  2028.76852115002 -2626.461580539376 1864.017518844473  2368.263484954897 2500.247497933161 1805.888996205479  2282.565010074442 3657.498333702644 1264.6676051297  4767.272010151854 -1310.934304813635 362.0548165588735  4203.671113748121 -2709.210420396326 35.76266260482607  4338.141789183289 -1360.473715598482 -1047.637241638181  754.108403279874 1351.700331591607 -2374.871943127532  3370.73266817002 1317.598751616114 -1730.001950324216  3423.219998664183 2601.937704618852 -1283.299226137848  1036.155289263889 -4463.342972531022 -1010.533860470978  -724.9668033140933 -4655.234863975732 849.2062421391915  1011.638257427616 -2720.052937853932 -2036.689958412363  4148.645270705203 2536.345137834441 -592.7677451095003  3102.657365351964 3664.409697585939 -710.3520587584412  2203.31052415545 3566.753900852584 -1369.417457857887  1739.493344782092 4441.73602504193 -763.1246195073895  768.7811893923925 4171.090284982493 -1330.064903015919  225.1170367258391 4808.749070809459 -690.1731050153371  -787.3019187972218 4291.432845403216 -1224.992744445814  -1299.678717655203 4722.549554997139 -517.9927097526137  -2290.260625905345 4033.1018490031 -935.9702403531988  -250.029483423409 5001.47703614144 46.50036595652993  -1597.30542992641 -3875.230407968951 1369.775046475378  -2206.019165106645 -4285.132873995692 680.6612915523561  -2689.433049532623 4191.086973631908 -249.5370278752521  -3552.157003192318 3278.146090874406 -638.5157218092172  -3784.113235084506 3270.869995556969 64.06035237845833  -4438.342213311962 2157.858391653569 -395.3432497690272  -4499.587536344766 2048.334639704547 383.633936185957  -3942.452213383688 2045.36971845202 -1139.867271577631  -3639.197684319671 3026.961073373899 815.614863887675  -4695.042176536173 894.5274391874684 -723.4150476514983  -4157.052171683998 1684.040835968842 1112.17714909681  -3995.914407529169 574.3207499616713 -1464.018332645202  -4487.531221641801 -649.6846649380319 -1042.550872223296  -3092.884713120695 2538.834421683648 1505.318605985397  -691.4949506245172 -2075.62764970896 2246.55361589707  -3012.650748045722 -3313.8931075788 1120.408401295564  -3590.558583112549 -880.1905390622163 -1672.5751926896  -3879.751421943681 -2065.768130367398 -1183.325745249748  -4803.62167247178 567.7683929369311 639.7617129249793  -1670.666478366952 3340.383394410867 -1659.334864591864  -3420.840120619595 1084.142635045331 1745.810396736047  1074.525513548868 3375.485149468634 1762.538358461412  -4627.867339588128 -1692.139234048222 -415.4105825589584  -2908.654840178165 351.6167418645421 -2015.251771998156  -2268.005514688603 1932.034623292691 2010.497791878336  -2795.413894576177 -2222.573101915763 -1741.992051111747  -2927.693635084752 -3309.155686867611 -1166.898435332856  -2468.301535153243 3726.839453213787 1129.157640967647  -1260.278588707007 -4836.159129046876 162.9020467314691  -2388.541122545676 325.3100679627964 2191.972334712906  -3528.685704800971 -469.9157831190122 1760.366992420159  -1689.48839565617 -3319.024520803492 -1665.144827589903  -1695.596455604436 -4231.074457302224 -1030.816877446176  -1455.301228211498 -2101.875936248785 -2142.156505137281  2535.164998745232 4314.446221831201 -74.76670511716479  -3409.275777415598 -3554.175832896761 448.6782387800081  -4104.90354305446 -2400.300949143819 781.9081351484297  895.0544052993648 4345.734685027918 1156.9613012722  -323.7440606547677 3919.683483376224 1547.146340232381  -112.7713676042356 2953.683723423369 2015.611584377735  -1355.241762179995 1248.064388031201 2323.385756126069  -2259.263960875233 -2710.455746850772 1775.562981641028  1179.530943904213 3300.227063092447 -1786.11258582916  -2802.243139490246 -4000.917897568019 -540.3720731007159  -369.2927503109073 2531.786474115968 -2144.794454050093  -819.1134877175322 1085.549528485724 -2399.073654594969  -556.6165475652838 4678.489866766045 848.7703262757882  -1057.291671107654 -768.4575882629093 2411.045986733867  -360.8571312357234 -4104.453297600693 -1419.418763983309  -2283.068055185391 -1234.777897320295 2138.71160118164  -3518.972001118911 -1987.603856859811 1478.203669138488  -4380.535429232971 -955.2236490451552 1113.437668729953  -4792.532985287061 -1239.918443050437 358.544837792318  -4977.344186609586 -161.2408986463587 -208.5270007882621  -1919.041376510243 2150.88642161546 -2035.763323305362  -2911.322581064791 2378.845322787062 -1640.775738128666  -425.0142922168812 -4714.027779401131 -816.3849147383899  -169.4932470583129 3700.845101615594 -1680.239354354423  1993.624058623624 4402.902825580409 648.7163118923934  4307.900212633849 -1300.18361310804 1079.798562724682  250.8882481207512 -1418.521697174827 -2390.319987629409  790.4792488824274 -4885.192790754775 -386.0214972658161  -1523.068177001512 3199.593791914556 1767.371504279342  4778.942262048428 1259.866727040058 -386.2708847854734  3194.091391704852 3630.845595837763 636.8852565719113  3768.284236412277 3290.643512799671 -34.90577727319981  -3816.712372129233 -2976.041608401635 -624.8288830822227  -1656.746912736966 4709.496683116491 197.2470554825245  -2779.428402700001 4061.316178648277 461.6143722543423  -270.3704301810851 -3062.356291184399 -1970.247751328438  -1163.652368454918 -558.9202391834178 -2407.385291927235  -2454.597268720894 -896.9352346703008 -2121.582223888525  1155.212726016784 4866.347846428125 -129.5434836066562  135.2987019733504 -4975.801304993782 277.3516712756257  2760.072097275029 -3164.168679446697 1353.129353241507  4786.97641754843 1275.919622813343 327.4568773682877  2185.435978127088 -1341.71691263044 2137.292814224836  -4228.494069591995 -2668.782560965217 68.7981835255804  -895.5562152559679 -3304.816761491684 1824.16618177596  2436.543402244851 2424.264156151056 -1819.817951620364  -4283.7602291121 399.1964351614711 1280.158523869086  1122.909079269731 -3729.842509911097 -1572.046453159993  1223.586913812452 2405.260507220649 2099.444610145655  712.1991944323867 4844.553906104816 523.6898004755147  -3108.865643315311 3139.325621908707 -1166.201880500682  4181.261649531517 -2413.733792270804 -659.9987521270737  -77.64006967760425 1302.903501509687 2409.047363092709  3786.244802268972 -2349.103219122153 1126.857681242856  -4853.684409211002 1193.332220072973 -48.63518375507721  -2584.467758016496 -4287.073587001372 28.44244453971082  -1578.266116628902 -4679.418235240097 -411.2241902708952  4484.965416155836 2211.991675178813 -24.9754815166664  -1116.718710852857 2467.872545262408 2101.941550777711  1389.421587739004 2241.104316668343 -2124.96849688175  -1684.07407240635 367.9843484494377 -2337.796238950231  -1828.335057990438 4382.080669855393 796.727371430187  4251.720946445693 -2244.756578222841 679.3478534860699  -340.5416505435512 -4971.655498919191 -250.2079688018526  -3204.956127742924 1301.869187074486 -1795.150102992367  -2189.901999181358 1106.511091164217 -2169.156872398939  -1398.564357567967 4029.50919969701 1311.618308312126  -3515.523294658815 -3549.758874732137 -133.7812486960588  -0.002727561636886051 0.0150178766343023 -0.003742962577254458  -1594.277359886009 -1960.560933922134 72.81724527930182  2410.603644951165 764.5536861232964 -17.01518866400189  -960.7063753453082 2060.80827157254 551.9757681330057  1796.495795420077 -1460.816485540576 495.8192380560819  -1169.841951765254 213.8232586739576 -1107.803071190454  -2479.309928032674 389.1129614591293 6.690112613865005  473.9858514357231 2331.033631632062 -478.4658009545324  1675.054802718855 -1148.709483097126 -751.4542427354277  -1303.261011225097 -218.2550353472174 1080.563007272813  1248.526812163704 1734.375386531345 865.8485034821383  -460.6704428418751 -1979.336849456974 -942.691347384809  412.5852400896113 -2858.580196956929 3.686404602302616  995.2939553993069 759.
[...]
<PointData  Vectors="Forcing"> 
<DataArray  type="Float64"  Name="Forcing"  NumberOfComponents="3" format="ascii">-5.1431722174477516e-05 -9.3782591811309849e-06 -5.3523694841870091e-04  -2.4130251069984086e-06 -3.6397059628624459e-06 5.5491870171904241e-04  -4.3654877897215724e-05 3.2945760082232740e-06 4.9698461127148906e-04  -1.3099803812881001e-04 1.1741342173856876e-05 4.5676639622465551e-04  -1.3607606096178884e-04 -1.5583158336307426e-06 2.0731922259842106e-04  -2.1753376228200654e-04 1.9373363324626318e-05 1.3389443913393469e-04  -2.5377535523341460e-04 -5.9627344103542569e-06 -4.3186693359293875e-06  -2.5127483448604955e-04 -1.8820186583863214e-05 -1.8066960450079027e-04  -1.7176501506749030e-04 3.3577437192009331e-06 -2.9933033481301861e-04  -1.5946240870421706e-04 3.4219739120448765e-06 -4.7091408215821639e-04  -9.3224390515450788e-05 2.4423503263253519e-05 -5.0127629774031292e-04  -5.2405818126949525e-05 5.0010274725415530e-05 3.5839334083897302e-04  -1.1320806201005112e-04 -5.5466723521872074e-05 -5.1613882061939933e-04  -2.1644443992272392e-04 5.4692231884372324e-05 2.1557774172864118e-05  -1.6775934096583813e-04 6.1393948046907485e-05 -4.2654176180695932e-04  -1.8685700399573161e-04 -4.9842117322950944e-05 -2.7015470181472617e-04  -1.7907699618576378e-04 -5.7150572248762441e-05 2.2223638864413036e-04  -7.2648366260736407e-05 -4.7475307751735481e-05 4.3190029028331885e-04  -5.0180904415487967e-05 4.4812072667578258e-05 -4.4060575988040366e-04  -1.5558089383674618e-04 7.3430905158499863e-05 3.7746230010642562e-04  -9.9651351222373191e-05 1.1680650788594344e-04 3.7510364974724630e-04  -1.7106315035111087e-04 1.3519115373570730e-04 2.4179003536969968e-04  -1.0712969283651082e-04 1.6497931947819357e-04 2.0189042678002130e-04  -1.4810614694187800e-04 1.3973820714402202e-04 6.2493784131280130e-05  -9.0261623132207612e-05 1.7622292117122870e-04 8.9210912214719650e-05  -1.5307819428272951e-04 1.8770362414903216e-04 -7.8245342960615874e-05  -9.6855000908157332e-05 2.1003612086750649e-04 -7.2314105506724721e-05  -8.6462010821806572e-05 1.3208795000019141e-04 -1.7123387322652306e-04  -4.1662077172591548e-05 1.8481378180265078e-04 -2.0444637966742584e-04  -6.8362337127890336e-05 1.2606215759429287e-04 -2.5426476474989343e-04  -4.2715029511758092e-06 1.8135473686292650e-04 -3.1423092200602565e-04  -1.7629271216461427e-04 1.6111492655315770e-04 -1.9173757424076996e-04  -2.0580987835489361e-04 -7.4734635423448457e-05 -4.3540757882631372e-04  -1.6927619464351094e-04 -1.1684082261183481e-04 -2.7890349879051122e-04  -1.9171790020564993e-04 -8.8946072837803306e-05 -1.8706087690064738e-04  -3.5257832810698020e-05 1.2456205916068790e-04 -4.6287287610594319e-04  -1.1335825489372534e-04 1.1728640293523775e-04 -4.6138662053809215e-04  -1.5325984947042856e-04 -1.2454780464381073e-04 -4.2761488660865015e-04  -1.4337883052519966e-04 -1.7128223963700846e-04 -2.7777280436187818e-04  -2.5543311059991584e-04 3.9806697718470786e-05 -1.2583981379394357e-04  -2.0554591929249129e-04 1.2199746191879425e-04 -5.3835404680623168e-05  -2.0651693387731376e-04 4.9916887879866981e-05 2.2494344469382180e-04  -6.6424520718148862e-06 -7.1582840948815500e-05 5.5109930293413404e-04  -1.6244179177275062e-04 -6.0354129243857653e-05 3.8067022930209706e-04  -1.4502596963918203e-04 -1.0454111054269078e-04 2.2760428640520122e-04  -4.1012460035617977e-05 1.3947326211859941e-04 1.9529935524626699e-04  1.7068193328298462e-05 2.2132631971167775e-04 -2.0533481360257127e-04  -3.1834415129092167e-05 1.0864897388742690e-04 4.1960190202856336e-04  -2.0707279354158841e-04 -1.0626752010372523e-04 1.1944928568359382e-04  -1.5855350418144009e-04 -1.4523809305127706e-04 1.2283736098648006e-04  -9.5979918788594723e-05 -1.6561519423123736e-04 2.7819448055445371e-04  -1.1102773441705108e-04 -1.9586195175642508e-04 1.6301962808267878e-04  -2.3069444458350009e-05 -1.9270119715381713e-04 3.2163979768116366e-04  -7.0883606670497949e-06 -2.0319666606035501e-04 1.6523773269726976e-04  5.4595625773253523e-05 -1.9958866776275349e-04 2.6557674926655598e-04  5.5340938287806150e-05 -1.6025796050850454e-04 8.7068313459261125e-05  1.1141158423337746e-04 -1.8525303794728144e-04 2.3714437178318847e-04  1.0772061210337578e-05 -1.9199536723280236e-04 -2.0180049367706276e-05  6.5704540910039124e-05 1.6055375615486346e-04 -2.5854189796007890e-04  6.1721514815622533e-05 1.3567634279169482e-04 -1.0535872558543549e-04  1.3667911951679258e-04 -1.8077863711534790e-04 7.5760821812917271e-05  1.8738560617316948e-04 -1.4074184082602588e-04 1.7219746684925448e-04  1.3180211915752324e-04 -9.3582244524165509e-05 -3.8181881034594729e-06  2.3945316004471236e-04 -1.1356097693078517e-04 1.1588031543899328e-04  2.1738085693819313e-04 -8.7841081149463358e-05 -6.5163454899089303e-05  1.6225062257497333e-04 -5.1128569647680035e-05 2.4152499389048322e-04  1.8385819145746909e-04 -1.0736484474860068e-04 -1.4931930977822664e-04  2.1913909370460479e-04 -2.7887929726839504e-05 1.9607513266607583e-04  1.5894287734409014e-04 -5.2864802493027339e-05 -1.8623119573045506e-04  2.1563569424805500e-04 -8.7970320509183148e-06 3.2173643537258042e-04  2.3048869903876092e-04 2.1524370809492154e-05 2.4464823988540861e-04  1.6275523621763071e-04 -1.3363623005673911e-04 -3.2857033005104539e-04  3.2044883611046216e-05 9.2479293722861144e-05 -4.7694227275372466e-04  1.3303328028752931e-04 1.5304055878412386e-04 -2.2718853850611654e-04  2.2431409405437289e-04 4.8574346454233838e-05 4.3347691811267223e-04  1.9223034091588525e-04 7.7118133702411151e-05 3.1048898753698262e-04  2.4622683925176834e-04 -6.0410202091996044e-06 -9.6568246874552594e-05  9.0216297740385357e-05 -1.2037102967481980e-04 3.2549772006395481e-04  1.4519052448217306e-04 -5.3200203112617341e-05 -2.9240791399771422e-04  -7.2305114882704091e-05 -1.3735929415364790e-04 -3.9509004963302584e-04  2.4421490993777869e-04 7.3050631514837088e-05 1.1407150374861644e-04  1.7704691672185653e-04 -5.1207895389310011e-06 4.8682701022505242e-04  1.0466595917701302e-04 -6.9807361035983069e-05 -4.3278183959268647e-04  1.0693896524219155e-04 6.5063018665560658e-05 3.4802950001236883e-04  1.4190324072715688e-04 1.3060511621584833e-04 3.2126857057779333e-04  1.3802272142382266e-04 -1.6284088644489278e-04 -2.2672532777159198e-04  6.6593226070472690e-05 1.8913971690376642e-04 -3.8223060753782826e-05  1.1516744192529828e-04 -1.6701283848990324e-05 -4.7766756381906726e-04  1.7718937346049646e-04 1.4043923001480619e-05 -3.7006132163138351e-04  8.6577277595769906e-05 1.4527125701300795e-04 3.7565924036184894e-04  8.3493077521212263e-05 1.5449376587174136e-04 2.1004309292318782e-04  7.8064301015163482e-05 8.7672391278643055e-05 5.1212619937091670e-04  -1.2245738161211566e-04 -1.6172246530233011e-04 -4.0554077201050218e-05  1.6452636072433188e-04 1.4430481156305747e-04 -1.0008560904465779e-04  1.5403198585067421e-04 6.1790385784747317e-05 -1.1979433117607173e-04  -6.3071183798386036e-05 -1.7888173282374804e-04 -2.7777784167756379e-04  -5.2338378892078647e-06 -1.7865903374320163e-04 -3.6260065870376160e-04  -1.4387450601357189e-05 -8.7184296928953387e-05 -3.9215195819467018e-04  4.5628049879663528e-05 -5.2368775985080789e-05 -4.8623678192800756e-04  1.0238258772431249e-04 1.0979722316413967e-04 -3.8786458374278656e-04  -5.0362614174978612e-05 -1.4010722083203494e-04 4.1325419605855106e-04  1.5512471546935808e-04 1.6345229392990002e-04 1.8131751680672457e-04  4.0527315976540871e-05 -9.3336063654776805e-05 4.0360829635322334e-04  6.4235606789888258e-05 -7.7031882414171926e-05 5.6995552468764731e-04  2.2653569219877184e-05 -2.1377162154124948e-04 -1.8023244824219548e-04  2.8664369746947380e-05 5.3865410735436395e-06 -5.6320418238234120e-04  3.2700184106609524e-05 1.8300392525005704e-04 3.3061558828526851e-04  9.4397871997522242e-05 3.4346908230774049e-05 -4.1939467226330027e-04  1.6440366058601073e-04 6.4747177823839213e-05 -3.3423113474113420e-04  1.7463703771299346e-04 3.5476876381830208e-05 -1.7134629672011656e-04  1.7267411345158379e-04 4.5800561945548181e-05 -4.6781555085274347e-05  2.5073006304385693e-04 1.7618863933251405e-05 1.0350472244560204e-04  1.1141725977443578e-04 -8.6203248828250513e-05 4.7721888661769919e-04  1.6184046352191650e-04 -1.2942395134909877e-04 3.8255450162611408e-04  1.4382679329712777e-05 2.1379937109707308e-04 2.2614641627759116e-04  3.1328846302342132e-05 -1.1198744956477130e-04 3.0958068582459547e-04  -1.0723711920387469e-04 -1.9543151721609209e-04 -1.5042453050490793e-04  -2.2760702989203533e-04 5.1219987929633708e-05 -2.4073535682241065e-04  1.9810533632289004e-05 5.3016032070068954e-05 4.8725909607168146e-04  -2.9663440308373204e-05 2.2393615494883175e-04 9.5751437530558481e-05  7.8150377517685504e-05 -1.2886081788725733e-04 -4.0221312652074538e-04  -2.5860783443501306e-04 -5.3780066839805382e-05 6.7823793218904844e-05  -1.7285432763393797e-04 -1.5465429682572378e-04 -1.6647088181823638e-04  -1.8334403247119866e-04 -1.4850296455067502e-04 -7.6325123111660689e-05  2.0401018503970382e-04 1.2239754509878826e-04 1.6216583997168938e-04  9.8666944528449588e-05 -2.0865918061141123e-04 -2.0945264085172977e-05  1.3038498574063833e-04 -1.3197042629279485e-04 -6.6096886847455999e-05  3.8020003894088223e-05 1.3311090958787491e-04 4.4423434869165205e-04  6.5152674916766967e-05 3.0083363916499342e-05 5.7510745198509057e-04  1.0503686027504115e-04 4.3892356143206695e-05 3.9901808701953340e-04  -6.0708133020012257e-05 -2.2045928777505370e-04 2.7635527167885617e-05  -3.0637940459590017e-05 2.1594204089999999e-04 -7.7481659980642672e-05  -1.5703371796093525e-04 1.2861944399081691e-04 -3.1712679804220240e-04  -2.5968929261730253e-04 -6.2169071624806557e-05 -1.0579366979249177e-04  -1.1633676397244950e-04 4.8173076073489699e-05 -4.6874660704893778e-04  2.1670854375067293e-04 1.1025876881051003e-04 2.3073435038744602e-05  1.1424819560224564e-05 9.7464274277710570e-05 -3.3059854561379848e-04  -1.0807897590316862e-04 -1.1015817838008308e-04 3.9299138889296539e-04  2.1640471258589999e-04 -9.6943599200955438e-06 -2.5900791166731359e-04  -4.5189426992270172e-05 1.4452329964184904e-04 3.0617406194550736e-04  -6.8910286147427601e-05 -8.8445258763527245e-05 -4.7188362872339006e-04  -3.7835073928911793e-05 -1.7950917457294467e-04 -1.1900644028178579e-04  1.6829107546027376e-04 -1.4544901710944919e-04 3.3697689486944174e-04  -2.1789385267091996e-04 1.1943208111832236e-04 6.9905900325562478e-05  -3.5872995143657086e-05 -5.8481132883680531e-05 -5.0810124099224543e-04  -2.0108672870900582e-04 9.0450786849270896e-05 -3.0619429350386637e-04  2.5190551172905992e-04 -5.5307847119067741e-05 5.9707549280618720e-05  1.2290553939828160e-04 1.8780584375312784e-04 1.5168323481919683e-05  6.5309736651800399e-05 1.3861960393924801e-04 1.0934002756558581e-04  -2.1799437141368599e-04 -1.0165387811550324e-04 -6.3484812387973953e-05  3.2069168261390377e-05 -5.6664438162949369e-05 -4.3823137328467387e-04  -3.2258895841947677e-05 -1.0913341877678110e-04 4.7161465462893209e-04  1.4207966469911333e-04 1.2739591369174058e-05 5.4954815845942046e-04  9.8351839235475636e-05 -1.8883738043449217e-04 -1.3494942764422332e-04  -2.4310062939419263e-04 1.0563504602057877e-04 -1.8540861888604148e-04  2.7192587002606106e-05 2.0327861677670470e-04 2.0880778867879348e-05  1.9316519515291770e-04 -6.0951388789237180e-05 4.7372376931221853e-04  1.2782217141706651e-04 -3.9673581667811632e-05 5.3647507451373602e-04  7.4993408762180224e-05 -1.8762653872401265e-04 -2.7139915204121400e-04  1.9427293877909380e-04 1.7468391857936269e-04 4.0277004642423152e-05  8.2562248556917310e-06 3.5365880198649235e-05 -1.9503716762537784e-05  1.1319604276437305e-04 1.0629755405267809e-04 -2.5015244385005603e-05  -1.8905464029754545e-04 -3.6402138401318361e-05 -3.7393083077309544e-05  8.1314735244552498e-05 -1.2668944597816047e-04 -1.9207364824146806e-04  -1.3173771343948128e-04 8.5226338488931342e-05 -1.6537824292409405e-04  7.3346235377443595e-05 -2.5625328681796213e-05 3.5442782941941269e-04  1.6329568167274227e-04 -2.6513539482174108e-05 -1.5974573772473025e-06  -3.1952268951934571e-05 -1.5444349084488287e-04 1.9336260879649733e-04  -1.1254179677796134e-04 7.5607130667900975e-05 1.8399830280042611e-04  8.0343584186905542e-05 2.6756680539335377e-05 -3.1790945592460044e-04  -1.0637646414267080e-04 -1.1964413635684180e-04 -3.4198385706559343e-04  4.4190501226294053e-05 9.7152866236638430e-05 2.4192740410124454e-04  -2.6435567032196462e-05 1.3314827169404447e-04 1.1562009027007920e-05  -6.4946444369811250e-05 -5.9024523206098268e-05 4.3139091707188390e-04  2.5313210252214825e-05 1.0168189419597438e-04 -2.7294174361245478e-04  -6.0351342574443245e-05 4.2382493390833942e-05 -4.2883680061893219e-04  1.0545646403506000e-04 -1.0980842962006926e-04 1.4078167164144901e-04  1.7076795503347963e-04 7.2037606247683336e-05 1.6896505212592026e-04  -1.6532315682624406e-04 -2.8712296354982205e-07 -2.9769248731053704e-04  9.5720971579291892e-06 -8.7329742390537869e-05 -4.3712578850125600e-04  -4.4579177372783888e-05 -1.9254652169431471e-04 -1.6559507124786440e-04  -1.4326017794806818e-04 -1.2326154166299519e-04 2.4679882228006674e-04  -1.2888486221941244e-04 -1.5141335368482628e-04 -1.7229786259986118e-05  1.6604274685759634e-04 -6.2143365834461091e-05 -2.8451799386508330e-04  -2.2310301113543353e-04 6.2425694999877919e-05 7.9650157435957945e-06  4.2282584457658525e-05 -1.2970182421226097e-04 3.9254669427648550e-04  1.9665950018513963e-04 6.5911432508973175e-05 -1.5945332720194647e-04  -1.7991213795297750e-04 -1.9542571620153975e-05 2.2629630717348691e-04  -1.5189411862796527e-04 1.6071948277163043e-04 3.4483006647126942e-05  1.9179474619351896e-04 -5.1911347529023772e-05 2.8087502793145065e-04  -3.3944485388393032e-05 5.0992261422968399e-05 3.9610981933467510e-04  7.4195316116896796e-05 1.8511483733993134e-04 1.7069457696237560e-04  6.1210179854457558e-05 1.9795080915546286e-04 -1.4955116913685314e-04  -8.0934597832100076e-05 1.7146521851364130e-04 -2.3167442797492120e-04  1.5973149488600130e-04 -1.4386941806747810e-04 -2.7013613906053177e-05  -5.9436085771792743e-05 1.6436234461485898e-04 2.8120392578652247e-04  5.6447654701514746e-05 -1.8990020101104885e-04 4.5755593599549558e-05  1.2085011595952780e-04 7.1416022406528573e-05 4.2968581932785411e-04  -2.0203159431807748e-04 -1.0437377400243712e-04 -2.2043177195319754e-04  -3.1211913388021030e-05 -7.3834347217910482e-05 -1.6633620566291471e-04  -6.4176380040585729e-05 -3.5581874898572159e-05 2.0330173121316616e-04  </DataArray> 
</PointData> 
</Piece>
</UnstructuredGrid>
</VTKFile>