<?xml version="1.0"?>
<VTKFile type="UnstructuredGrid"  version="0.1"  >
<UnstructuredGrid>
<Piece  NumberOfPoints="201" NumberOfCells="657">
<Points>
<DataArray  type="Float64"  NumberOfComponents="3"  format="ascii">-1.21333388292658 -0.02120412430413906 2494.782796200016  1.209108845533984 0.00155582161071494 -2494.785704185313  1545.862552097924 0.02824322801336606 -2376.720709188563  2939.299389983893 0.02588788587910393 -2025.637929832459  4045.042009002357 0.001387678707317438 -1475.433942999818  4754.776535365701 0.009325126593153665 -780.0551375855174  4999.001195936634 -0.003932426348875548 -8.437735891901214  4753.828789863002 -0.01595206238151598 763.2578828097144  4043.335903690581 -0.007712699508047585 1459.439280509602  2937.127727806216 0.002781752288539029 2012.48006584367  1543.504385666908 0.0008536837412304955 2369.124109664896  1958.075580011598 -1510.117329181981 -2174.202454432609  1943.181608311423 1172.861050919046 2218.801611957591  4758.606882852522 -1343.735334339772 -378.3365107235759  3425.039349381092 -1466.436000279383 1657.448165090432  4327.36420633886 1359.063756314512 1042.036075204249  4310.587327146502 1359.217477504643 -1076.210362228462  2186.319561958081 1351.67347134209 -2146.174310111579  751.8694222435851 -1351.605187970596 2371.173943958414  3404.598932317115 -1351.488187607973 -1706.768687197622  2370.156729845666 -2651.812709443886 -1761.646856137542  3521.101891935282 -2598.836783940069 -1216.862985815468  2414.591318649338 -3715.175130882765 -1167.102579818025  3401.767638314003 -3486.245313903869 -578.4965874317461  2134.689717178868 -4422.923800481557 -490.1334525619319  3039.164969400918 -3968.962475866268 117.9301498660234  1596.434370823057 -4725.392912287723 219.3540109932542  2315.265423207228 -4105.136543909222 838.0670805772876  833.9162541408195 -4600.472675606919 894.1231196627066  1481.255903618934 -3752.598406646644 1476.27612741626  -58.06522280686575 -4031.16770986798 1482.231724266011  3550.523203398621 -3224.581938450303 704.3872761237974  3402.787851979091 1351.233344267566 1692.605568481068  3448.392909660033 2615.644158813714 1245.125517987232  4176.585259531716 2506.230561922499 559.4074686288217  553.4549467427676 -2995.424300382741 1980.306642728152  2028.76852115002 -2626.461580539376 1864.017518844473  2368.263484954897 2500.247497933161 1805.888996205479  2282.565010074442 3657.498333702644 1264.6676051297  4767.272010151854 -1310.934304813635 362.0548165588735  4203.671113748121 -2709.210420396326 35.76266260482607  4338.141789183289 -1360.473715598482 -1047.637241638181  754.108403279874 1351.700331591607 -2374.871943127532  3370.73266817002 1317.598751616114 -1730.001950324216  3423.219998664183 2601.937704618852 -1283.299226137848  1036.155289263889 -4463.342972531022 -1010.533860470978  -724.9668033140933 -4655.234863975732 849.2062421391915  1011.638257427616 -2720.052937853932 -2036.689958412363  4148.645270705203 2536.345137834441 -592.7677451095003  3102.657365351964 3664.409697585939 -710.3520587584412  2203.31052415545 3566.753900852584 -1369.417457857887  1739.493344782092 4441.73602504193 -763.1246195073895  768.7811893923925 4171.090284982493 -1330.064903015919  225.1170367258391 4808.749070809459 -690.1731050153371  -787.3019187972218 4291.432845403216 -1224.992744445814  -1299.678717655203 4722.549554997139 -517.9927097526137  -2290.260625905345 4033.1018490031 -935.9702403531988  -250.029483423409 5001.47703614144 46.50036595652993  -1597.30542992641 -3875.230407968951 1369.775046475378  -2206.019165106645 -4285.132873995692 680.6612915523561  -2689.433049532623 4191.086973631908 -249.5370278752521  -3552.157003192318 3278.146090874406 -638.5157218092172  -3784.113235084506 3270.869995556969 64.06035237845833  -4438.342213311962 2157.858391653569 -395.3432497690272  -4499.587536344766 2048.334639704547 383.633936185957  -3942.452213383688 2045.36971845202 -1139.867271577631  -3639.197684319671 3026.961073373899 815.614863887675  -4695.042176536173 894.5274391874684 -723.4150476514983  -4157.052171683998 1684.040835968842 1112.17714909681  -3995.914407529169 574.3207499616713 -1464.018332645202  -4487.531221641801 -649.6846649380319 -1042.550872223296  -3092.884713120695 2538.834421683648 1505.318605985397  -691.4949506245172 -2075.62764970896 2246.55361589707  -3012.650748045722 -3313.8931075788 1120.408401295564  -3590.558583112549 -880.1905390622163 -1672.5751926896  -3879.751421943681 -2065.768130367398 -1183.325745249748  -4803.62167247178 567.7683929369311 639.7617129249793  -1670.666478366952 3340.383394410867 -1659.334864591864  -3420.840120619595 1084.142635045331 1745.810396736047  1074.525513548868 3375.485149468634 1762.538358461412  -4627.867339588128 -1692.139234048222 -415.4105825589584  -2908.654840178165 351.6167418645421 -2015.251771998156  -2268.005514688603 1932.034623292691 2010.497791878336  -2795.413894576177 -2222.573101915763 -1741.992051111747  -2927.693635084752 -3309.155686867611 -1166.898435332856  -2468.301535153243 3726.839453213787 1129.157640967647  -1260.278588707007 -4836.159129046876 162.9020467314691  -2388.541122545676 325.3100679627964 2191.972334712906  -3528.685704800971 -469.9157831190122 1760.366992420159  -1689.48839565617 -3319.024520803492 -1665.144827589903  -1695.596455604436 -4231.074457302224 -1030.816877446176  -1455.301228211498 -2101.875936248785 -2142.156505137281  2535.164998745232 4314.446221831201 -74.76670511716479  -3409.275777415598 -3554.175832896761 448.6782387800081  -4104.90354305446 -2400.300949143819 781.9081351484297  895.0544052993648 4345.734685027918 1156.9613012722  -323.7440606547677 3919.683483376224 1547.146340232381  -112.7713676042356 2953.683723423369 2015.611584377735  -1355.241762179995 1248.064388031201 2323.385756126069  -2259.263960875233 -2710.455746850772 1775.562981641028  1179.530943904213 3300.227063092447 -1786.11258582916  -2802.243139490246 -4000.917897568019 -540.3720731007159  -369.2927503109073 2531.786474115968 -2144.794454050093  -819.1134877175322 1085.549528485724 -2399.073654594969  -556.6165475652838 4678.489866766045 848.7703262757882  -1057.291671107654 -768.4575882629093 2411.045986733867  -360.8571312357234 -4104.453297600693 -1419.418763983309  -2283.068055185391 -1234.777897320295 2138.71160118164  -3518.972001118911 -1987.603856859811 1478.203669138488  -4380.535429232971 -955.2236490451552 1113.437668729953  -4792.532985287061 -1239.918443050437 358.544837792318  -4977.344186609586 -161.2408986463587 -208.5270007882621  -1919.041376510243 2150.88642161546 -2035.763323305362  -2911.322581064791 2378.845322787062 -1640.775738128666  -425.0142922168812 -4714.027779401131 -816.3849147383899  -169.4932470583129 3700.845101615594 -1680.239354354423  1993.624058623624 4402.902825580409 648.7163118923934  4307.900212633849 -1300.18361310804 1079.798562724682  250.8882481207512 -1418.521697174827 -2390.319987629409  790.4792488824274 -4885.192790754775 -386.0214972658161  -1523.068177001512 3199.593791914556 1767.371504279342  4778.942262048428 1259.866727040058 -386.2708847854734  3194.091391704852 3630.845595837763 636.8852565719113  3768.284236412277 3290.643512799671 -34.90577727319981  -3816.712372129233 -2976.041608401635 -624.8288830822227  -1656.746912736966 4709.496683116491 197.2470554825245  -2779.428402700001 4061.316178648277 461.6143722543423  -270.3704301810851 -3062.356291184399 -1970.247751328438  -1163.652368454918 -558.9202391834178 -2407.385291927235  -2454.597268720894 -896.9352346703008 -2121.582223888525  1155.212726016784 4866.347846428125 -129.5434836066562  135.2987019733504 -4975.801304993782 277.3516712756257  2760.072097275029 -3164.168679446697 1353.129353241507  4786.97641754843 1275.919622813343 327.4568773682877  2185.435978127088 -1341.71691263044 2137.292814224836  -4228.494069591995 -2668.782560965217 68.7981835255804  -895.5562152559679 -3304.816761491684 1824.16618177596  2436.543402244851 2424.264156151056 -1819.817951620364  -4283.7602291121 399.1964351614711 1280.158523869086  1122.909079269731 -3729.842509911097 -1572.046453159993  1223.586913812452 2405.260507220649 2099.444610145655  712.1991944323867 4844.553906104816 523.6898004755147  -3108.865643315311 3139.325621908707 -1166.201880500682  4181.261649531517 -2413.733792270804 -659.9987521270737  -77.64006967760425 1302.903501509687 2409.047363092709  3786.244802268972 -2349.103219122153 1126.857681242856  -4853.684409211002 1193.332220072973 -48.63518375507721  -2584.467758016496 -4287.073587001372 28.44244453971082  -1578.266116628902 -4679.418235240097 -411.2241902708952  4484.965416155836 2211.991675178813 -24.9754815166664  -1116.718710852857 2467.872545262408 2101.941550777711  1389.421587739004 2241.104316668343 -2124.96849688175  -1684.07407240635 367.9843484494377 -2337.796238950231  -1828.335057990438 4382.080669855393 796.727371430187  4251.720946445693 -2244.756578222841 679.3478534860699  -340.5416505435512 -4971.655498919191 -250.2079688018526  -3204.956127742924 1301.869187074486 -1795.150102992367  -2189.901999181358 1106.511091164217 -2169.156872398939  -1398.564357567967 4029.50919969701 1311.618308312126  -3515.523294658815 -3549.758874732137 -133.7812486960588  -0.002727561636886051 0.0150178766343023 -0.003742962577254458  -1594.277359886009 -1960.560933922134 72.81724527930182  2410.603644951165 764.5536861232964 -17.01518866400189  -960.7063753453082 2060.80827157254 551.9757681330057  1796.495795420077 -1460.816485540576 495.8192380560819  -1169.841951765254 213.8232586739576 -1107.803071190454  -2479.309928032674 389.1129614591293 6.690112613865005  473.9858514357231 2331.033631632062 -478.4658009545324  1675.054802718855 -1148.709483097126 -751.4542427354277  -1303.261011225097 -218.2550353472174 1080.563007272813  1248.526812163704 1734.375386531345 865.8485034821383  -460.6704428418751 -1979.336849456974 -942.691347384809  412.5852400896113 -2858.580196956929 3.686404602302616  995.2939553993069 759.
[...]
<PointData  Scalars="Pressure"> 
<DataArray  type="Float64"  Name="Pressure"  format="ascii">-1.4401006689189132e-02  -7.8632829351758544e-03  -1.5968168552827455e-02  8.7901732344315871e-03  -6.1923033040858326e-03  2.5284817921349036e-04  8.7328620200922240e-03  5.0460896223992659e-03  -2.8672875634426241e-02  -2.4741919715358242e-02  -3.2386192312087697e-02  -2.1083314684020773e-02  -6.9644160486410905e-03  -2.2639435099037620e-03  -5.0118868025648220e-03  -1.8928829056629817e-02  -8.0217794978224846e-05  -1.3940320157983162e-02  -3.2319672244406197e-02  8.5263443042735611e-03  8.6159062915219485e-03  2.6437170463207815e-02  5.6596251145109907e-03  3.2563204398775979e-03  1.4778369647458456e-02  9.4758020442606075e-03  1.9699428548066295e-02  -5.9670103368852038e-03  3.3703873349614122e-03  -1.0781426598064962e-02  7.0905187302076032e-03  1.0256111656738683e-02  -1.0426696802829620e-02  -1.4707433371825963e-02  -1.0455325087243398e-02  -5.0792529041625255e-03  4.5329997966907830e-03  -1.4676430248078966e-02  1.0001930286651717e-02  -2.0370335443815708e-03  1.1998934654731229e-02  1.2717442519474369e-02  -1.4305920393296871e-02  1.0984165081068043e-02  5.5674068138710376e-04  1.9133820497620362e-03  1.0334016958751210e-02  -5.7245453952443001e-03  2.1356748349751521e-02  9.6798310232159568e-03  8.7747457507759176e-03  2.4302733872368001e-02  1.5131712004243247e-02  1.4188987532847863e-02  1.7328665186592568e-02  4.9745925206542817e-03  6.4030585769641957e-03  1.2271749223835443e-02  6.0099896598265583e-03  3.1938489182146723e-03  1.4016331371646722e-02  6.0096410954059544e-03  -2.5133738217423263e-03  1.2653834002439040e-02  1.1593468278801634e-02  -2.0632814717771782e-02  5.4651368248215008e-03  -1.3548668169541119e-02  -3.2478613083939132e-03  -2.1455158301139667e-02  -1.5988277687748121e-02  1.0162099497777966e-02  9.4341624845743245e-03  2.5658313942385696e-02  -1.5764854884089331e-02  -1.1893450319270617e-02  1.5480339214545122e-02  -1.5418703143379725e-02  -6.4907612136181087e-03  -7.6945859787273512e-03  -4.8218608988926845e-04  -1.9136995815010379e-02  2.7367885844756905e-03  -2.9638389920446772e-02  4.1175653214419591e-03  1.6560501123687392e-02  1.0512658405982029e-02  2.9838189995944559e-03  1.3427757201688989e-02  -7.9471063284149001e-03  -2.0813216817119912e-03  -2.6139912612388114e-02  7.8942880506509914e-03  1.5869405955709379e-02  -7.4896684261164235e-04  6.5071328372288397e-03  2.2948244003924888e-02  -1.9533955336766294e-02  -2.3287468504369736e-02  1.4148399132506486e-02  1.5838900216359107e-02  1.6755357365451775e-02  -2.4650135122852579e-02  -5.9094108687532234e-03  2.2892274138207887e-02  -7.2199683740300780e-03  8.5745790522437967e-03  -1.1991088583418344e-02  6.3326691749023669e-03  -2.2747153030937832e-03  -6.6539519650580222e-03  1.6877009092616725e-02  -1.0976834815111481e-02  -7.9231014984835271e-03  1.0318404548337197e-02  -1.3715309170080342e-02  7.6925519442941539e-03  -7.3235065022467507e-03  -2.6061457135866984e-02  2.2532141195052060e-02  1.3144186914030879e-02  9.3326860357428910e-03  1.2620676784025760e-03  5.8853576029025889e-03  4.2964967422349796e-03  1.3880678537157435e-02  4.3193075510238408e-03  -2.8508882061153628e-03  -1.9374903126029634e-02  -3.7372152956877194e-02  2.8749766029398358e-02  1.8403920862789431e-02  -5.3540558118986134e-03  2.8793300800217153e-06  -3.1049390275577734e-02  1.9183986635544058e-02  -1.0231854597190268e-02  2.5274864407766559e-03  3.4103409063259023e-03  -3.1506626458890317e-03  -1.9871037502129742e-02  6.2113446232984846e-03  1.5932151517709689e-03  7.5912483106648576e-03  -2.4866813415978958e-02  -5.2356298255553935e-03  2.7366464392296324e-03  1.8108227312425715e-02  1.5863060475707338e-03  9.5329902256095188e-03  -1.5080069082086091e-02  -5.4220547728023481e-03  -2.2765127765631395e-02  2.2940640156836025e-02  4.7223575814943578e-03  1.6999769873693411e-02  -1.5434731290190237e-02  -2.7221901754144361e-02  8.6355909474019159e-03  7.9952876074352655e-03  8.4590382232392414e-01  6.0876022988589418e-01  6.1443639438091313e-01  6.1232464467118275e-01  6.1598028212249900e-01  6.1584967914721089e-01  6.2671379649411774e-01  6.2175594564830294e-01  6.1119518262565686e-01  6.2670868801641877e-01  5.7277725637776855e-01  5.6781993811032960e-01  5.5660836204279529e-01  5.7209014168815020e-01  5.4743752888257247e-01  5.7436842183437475e-01  5.4473078672453712e-01  5.2471894818434861e-01  5.0656484915101463e-01  5.0251307420975611e-01  4.9033754204936275e-01  4.8675487688926689e-01  4.5934177085036637e-01  4.9202816654066994e-01  4.8450359521136932e-01  4.6819285457720294e-01  4.7730858651676283e-01  4.6591103792924699e-01  4.6145140727604261e-01  4.6013327114344399e-01  4.8277392240277095e-01  4.4821847228720157e-01  4.1942835308613391e-01  4.2927563783738154e-01  4.0873440796734745e-01  4.4813684650570268e-01  4.3305591843176861e-01  4.1602589259765582e-01  4.0411839046416426e-01  7.4778755244752659e-01  7.3977862611878809e-01  </DataArray> 
</PointData> 
</Piece>
</UnstructuredGrid>
</VTKFile>