<?xml version="1.0"?>
<VTKFile type="UnstructuredGrid"  version="0.1"  >
<UnstructuredGrid>
<Piece  NumberOfPoints="201" NumberOfCells="657">
<Points>
<DataArray  type="Float64"  NumberOfComponents="3"  format="ascii">-1.21333388292658 -0.02120412430413906 2494.782796200016  1.209108845533984 0.00155582161071494 -2494.785704185313  1545.862552097924 0.02824322801336606 -2376.720709188563  2939.299389983893 0.02588788587910393 -2025.637929832459  4045.042009002357 0.001387678707317438 -1475.433942999818  4754.776535365701 0.009325126593153665 -780.0551375855174  4999.001195936634 -0.003932426348875548 -8.437735891901214  4753.828789863002 -0.01595206238151598 763.2578828097144  4043.335903690581 -0.007712699508047585 1459.439280509602  2937.127727806216 0.002781752288539029 2012.48006584367  1543.504385666908 0.0008536837412304955 2369.124109664896  1958.075580011598 -1510.117329181981 -2174.202454432609  1943.181608311423 1172.861050919046 2218.801611957591  4758.606882852522 -1343.735334339772 -378.3365107235759  3425.039349381092 -1466.436000279383 1657.448165090432  4327.36420633886 1359.063756314512 1042.036075204249  4310.587327146502 1359.217477504643 -1076.210362228462  2186.319561958081 1351.67347134209 -2146.174310111579  751.8694222435851 -1351.605187970596 2371.173943958414  3404.598932317115 -1351.488187607973 -1706.768687197622  2370.156729845666 -2651.812709443886 -1761.646856137542  3521.101891935282 -2598.836783940069 -1216.862985815468  2414.591318649338 -3715.175130882765 -1167.102579818025  3401.767638314003 -3486.245313903869 -578.4965874317461  2134.689717178868 -4422.923800481557 -490.1334525619319  3039.164969400918 -3968.962475866268 117.9301498660234  1596.434370823057 -4725.392912287723 219.3540109932542  2315.265423207228 -4105.136543909222 838.0670805772876  833.9162541408195 -4600.472675606919 894.1231196627066  1481.255903618934 -3752.598406646644 1476.27612741626  -58.06522280686575 -4031.16770986798 1482.231724266011  3550.523203398621 -3224.581938450303 704.3872761237974  3402.787851979091 1351.233344267566 1692.605568481068  3448.392909660033 2615.644158813714 1245.125517987232  4176.585259531716 2506.230561922499 559.4074686288217  553.4549467427676 -2995.424300382741 1980.306642728152  2028.76852115002 -2626.461580539376 1864.017518844473  2368.263484954897 2500.247497933161 1805.888996205479  2282.565010074442 3657.498333702644 1264.6676051297  4767.272010151854 -1310.934304813635 362.0548165588735  4203.671113748121 -2709.210420396326 35.76266260482607  4338.141789183289 -1360.473715598482 -1047.637241638181  754.108403279874 1351.700331591607 -2374.871943127532  3370.73266817002 1317.598751616114 -1730.001950324216  3423.219998664183 2601.937704618852 -1283.299226137848  1036.155289263889 -4463.342972531022 -1010.533860470978  -724.9668033140933 -4655.234863975732 849.2062421391915  1011.638257427616 -2720.052937853932 -2036.689958412363  4148.645270705203 2536.345137834441 -592.7677451095003  3102.657365351964 3664.409697585939 -710.3520587584412  2203.31052415545 3566.753900852584 -1369.417457857887  1739.493344782092 4441.73602504193 -763.1246195073895  768.7811893923925 4171.090284982493 -1330.064903015919  225.1170367258391 4808.749070809459 -690.1731050153371  -787.3019187972218 4291.432845403216 -1224.992744445814  -1299.678717655203 4722.549554997139 -517.9927097526137  -2290.260625905345 4033.1018490031 -935.9702403531988  -250.029483423409 5001.47703614144 46.50036595652993  -1597.30542992641 -3875.230407968951 1369.775046475378  -2206.019165106645 -4285.132873995692 680.6612915523561  -2689.433049532623 4191.086973631908 -249.5370278752521  -3552.157003192318 3278.146090874406 -638.5157218092172  -3784.113235084506 3270.869995556969 64.06035237845833  -4438.342213311962 2157.858391653569 -395.3432497690272  -4499.587536344766 2048.334639704547 383.633936185957  -3942.452213383688 2045.36971845202 -1139.867271577631  -3639.197684319671 3026.961073373899 815.614863887675  -4695.042176536173 894.5274391874684 -723.4150476514983  -4157.052171683998 1684.040835968842 1112.17714909681  -3995.914407529169 574.3207499616713 -1464.018332645202  -4487.531221641801 -649.6846649380319 -1042.550872223296  -3092.884713120695 2538.834421683648 1505.318605985397  -691.4949506245172 -2075.62764970896 2246.55361589707  -3012.650748045722 -3313.8931075788 1120.408401295564  -3590.558583112549 -880.1905390622163 -1672.5751926896  -3879.751421943681 -2065.768130367398 -1183.325745249748  -4803.62167247178 567.7683929369311 639.7617129249793  -1670.666478366952 3340.383394410867 -1659.334864591864  -3420.840120619595 1084.142635045331 1745.810396736047  1074.525513548868 3375.485149468634 1762.538358461412  -4627.867339588128 -1692.139234048222 -415.4105825589584  -2908.654840178165 351.6167418645421 -2015.251771998156  -2268.005514688603 1932.034623292691 2010.497791878336  -2795.413894576177 -2222.573101915763 -1741.992051111747  -2927.693635084752 -3309.155686867611 -1166.898435332856  -2468.301535153243 3726.839453213787 1129.157640967647  -1260.278588707007 -4836.159129046876 162.9020467314691  -2388.541122545676 325.3100679627964 2191.972334712906  -3528.685704800971 -469.9157831190122 1760.366992420159  -1689.48839565617 -3319.024520803492 -1665.144827589903  -1695.596455604436 -4231.074457302224 -1030.816877446176  -1455.301228211498 -2101.875936248785 -2142.156505137281  2535.164998745232 4314.446221831201 -74.76670511716479  -3409.275777415598 -3554.175832896761 448.6782387800081  -4104.90354305446 -2400.300949143819 781.9081351484297  895.0544052993648 4345.734685027918 1156.9613012722  -323.7440606547677 3919.683483376224 1547.146340232381  -112.7713676042356 2953.683723423369 2015.611584377735  -1355.241762179995 1248.064388031201 2323.385756126069  -2259.263960875233 -2710.455746850772 1775.562981641028  1179.530943904213 3300.227063092447 -1786.11258582916  -2802.243139490246 -4000.917897568019 -540.3720731007159  -369.2927503109073 2531.786474115968 -2144.794454050093  -819.1134877175322 1085.549528485724 -2399.073654594969  -556.6165475652838 4678.489866766045 848.7703262757882  -1057.291671107654 -768.4575882629093 2411.045986733867  -360.8571312357234 -4104.453297600693 -1419.418763983309  -2283.068055185391 -1234.777897320295 2138.71160118164  -3518.972001118911 -1987.603856859811 1478.203669138488  -4380.535429232971 -955.2236490451552 1113.437668729953  -4792.532985287061 -1239.918443050437 358.544837792318  -4977.344186609586 -161.2408986463587 -208.5270007882621  -1919.041376510243 2150.88642161546 -2035.763323305362  -2911.322581064791 2378.845322787062 -1640.775738128666  -425.0142922168812 -4714.027779401131 -816.3849147383899  -169.4932470583129 3700.845101615594 -1680.239354354423  1993.624058623624 4402.902825580409 648.7163118923934  4307.900212633849 -1300.18361310804 1079.798562724682  250.8882481207512 -1418.521697174827 -2390.319987629409  790.4792488824274 -4885.192790754775 -386.0214972658161  -1523.068177001512 3199.593791914556 1767.371504279342  4778.942262048428 1259.866727040058 -386.2708847854734  3194.091391704852 3630.845595837763 636.8852565719113  3768.284236412277 3290.643512799671 -34.90577727319981  -3816.712372129233 -2976.041608401635 -624.8288830822227  -1656.746912736966 4709.496683116491 197.2470554825245  -2779.428402700001 4061.316178648277 461.6143722543423  -270.3704301810851 -3062.356291184399 -1970.247751328438  -1163.652368454918 -558.9202391834178 -2407.385291927235  -2454.597268720894 -896.9352346703008 -2121.582223888525  1155.212726016784 4866.347846428125 -129.5434836066562  135.2987019733504 -4975.801304993782 277.3516712756257  2760.072097275029 -3164.168679446697 1353.129353241507  4786.97641754843 1275.919622813343 327.4568773682877  2185.435978127088 -1341.71691263044 2137.292814224836  -4228.494069591995 -2668.782560965217 68.7981835255804  -895.5562152559679 -3304.816761491684 1824.16618177596  2436.543402244851 2424.264156151056 -1819.817951620364  -4283.7602291121 399.1964351614711 1280.158523869086  1122.909079269731 -3729.842509911097 -1572.046453159993  1223.586913812452 2405.260507220649 2099.444610145655  712.1991944323867 4844.553906104816 523.6898004755147  -3108.865643315311 3139.325621908707 -1166.201880500682  4181.261649531517 -2413.733792270804 -659.9987521270737  -77.64006967760425 1302.903501509687 2409.047363092709  3786.244802268972 -2349.103219122153 1126.857681242856  -4853.684409211002 1193.332220072973 -48.63518375507721  -2584.467758016496 -4287.073587001372 28.44244453971082  -1578.266116628902 -4679.418235240097 -411.2241902708952  4484.965416155836 2211.991675178813 -24.9754815166664  -1116.718710852857 2467.872545262408 2101.941550777711  1389.421587739004 2241.104316668343 -2124.96849688175  -1684.07407240635 367.9843484494377 -2337.796238950231  -1828.335057990438 4382.080669855393 796.727371430187  4251.720946445693 -2244.756578222841 679.3478534860699  -340.5416505435512 -4971.655498919191 -250.2079688018526  -3204.956127742924 1301.869187074486 -1795.150102992367  -2189.901999181358 1106.511091164217 -2169.156872398939  -1398.564357567967 4029.50919969701 1311.618308312126  -3515.523294658815 -3549.758874732137 -133.7812486960588  -0.002727561636886051 0.0150178766343023 -0.003742962577254458  -1594.277359886009 -1960.560933922134 72.81724527930182  2410.603644951165 764.5536861232964 -17.01518866400189  -960.7063753453082 2060.80827157254 551.9757681330057  1796.495795420077 -1460.816485540576 495.8192380560819  -1169.841951765254 213.8232586739576 -1107.803071190454  -2479.309928032674 389.1129614591293 6.690112613865005  473.9858514357231 2331.033631632062 -478.4658009545324  1675.054802718855 -1148.709483097126 -751.4542427354277  -1303.261011225097 -218.2550353472174 1080.563007272813  1248.526812163704 1734.375386531345 865.8485034821383  -460.6704428418751 -1979.336849456974 -942.691347384809  412.5852400896113 -2858.580196956929 3.686404602302616  995.2939553993069 759.
[...]
<PointData  Vectors="Velocity"> 
<DataArray  type="Float64"  Name="Velocity"  NumberOfComponents="3" format="ascii">-2.4131220257963694e-06 -4.2222730415103154e-08 -1.0379329229745546e-05  2.4047241028095310e-06 3.1568861020484311e-09 1.0373744232346075e-05  1.5367341647356474e-06 5.6265374206697104e-08 1.8155767554143409e-06  7.2428495094832139e-07 5.1530139527474032e-08 -6.1840910091709419e-06  -1.0843007570886000e-07 2.7501581646459873e-09 -1.1907940015725967e-05  -1.0322543710035936e-06 1.8546542227494081e-08 -1.4976399444118873e-05  -2.0132793128800047e-06 -7.8419833597784218e-09 -1.6817790862488052e-05  -2.9170962366657695e-06 -3.1783643125114387e-08 -1.8503715757937676e-05  -3.5010079360591509e-06 -1.5377635925928911e-08 -1.9974144351170864e-05  -3.5938987716056721e-06 5.4672234987802464e-09 -2.0046177578190875e-05  -3.1529109969913500e-06 1.6779818426236326e-09 -1.6961026006451349e-05  1.1672428895117609e-06 -5.7561738896558717e-06 -1.4045439852740576e-06  -3.0933044954428788e-06 4.1710825513977147e-06 -1.7356262202295867e-05  -1.2928438141515885e-06 -4.0264515920297267e-06 -1.5411580458190989e-05  -3.1463517967953522e-06 -4.6526910832479794e-06 -1.8907282833871101e-05  -2.8471994584791805e-06 4.0266242535565230e-06 -1.8254604602624220e-05  -4.2035564516147001e-07 4.3624927190447247e-06 -1.3317052947746356e-05  1.0927094289434063e-06 5.1602388992877472e-06 -2.5537052859108114e-06  -2.5765142908445318e-06 -5.0267423067770439e-06 -1.2873314443051980e-05  3.6338491926996827e-07 -4.7896333009402819e-06 -9.1098109444343156e-06  8.1385880328465877e-07 -9.6725646662742336e-06 -5.0610827354555736e-06  2.0209161408843917e-07 -8.7886292232266989e-06 -1.0564653284914941e-05  5.6611981173453294e-07 -1.2910539286356606e-05 -6.8074424568519984e-06  2.2301929900356924e-08 -1.1296013166478258e-05 -1.0801828125262946e-05  3.4990731311707550e-07 -1.4938752033537824e-05 -6.6741985006280432e-06  -2.4829973986151062e-07 -1.2709355131768417e-05 -1.0377860682058070e-05  -6.8514387606540297e-09 -1.5913373177222991e-05 -5.5971670648338797e-06  -6.8532073050614544e-07 -1.3503059207154837e-05 -9.4665769862614379e-06  -4.5861683591978150e-07 -1.5857269706484472e-05 -4.2074082463323141e-06  -1.2517488712344521e-06 -1.2985152117849948e-05 -8.9698298862205533e-06  -9.6171436143892585e-07 -1.4440700430854070e-05 -2.7888999194755992e-06  -1.2730262601742348e-06 -9.9672087836162718e-06 -1.3699869795780579e-05  -3.2376266722384092e-06 4.2841461066738312e-06 -1.9122012473848029e-05  -2.1608177024824439e-06 8.1729677859847663e-06 -1.5875720610820851e-05  -1.6772611634759483e-06 7.4465747858174862e-06 -1.5452289644989031e-05  -1.7411154188806667e-06 -1.1022876691263283e-05 -8.3768678407783805e-06  -2.2858617389592529e-06 -9.1485686153792498e-06 -1.4259309632787649e-05  -2.4517790102076131e-06 8.4678634845202196e-06 -1.5208215804502465e-05  -1.2883583405798998e-06 1.2175649913902251e-05 -1.1147948750134501e-05  -2.1805769465214898e-06 -3.8191749627449793e-06 -1.6946307624717962e-05  -1.0262658044851617e-06 -8.2087406159038641e-06 -1.4249234310849840e-05  -4.7951014518356166e-07 -4.4224569340763035e-06 -1.3483203679136002e-05  1.8758742952286067e-06 5.2154305423489142e-06 5.5007253625763297e-06  4.0597103834262581e-07 4.6963980618478487e-06 -8.9348714171469608e-06  2.7627532423098394e-07 8.8613699873852916e-06 -1.0086697763829048e-05  5.8327269789176904e-07 -1.5659613074379200e-05 -2.2504017040371872e-06  -5.1882505873486118e-07 -1.6273237506364370e-05 1.4978357573741193e-06  1.3359600054466884e-06 -1.0245273852522294e-05 1.7897187077505910e-06  -4.7428497132314536e-07 7.9980548469917930e-06 -1.3255750850613241e-05  2.2067807757952737e-07 1.2111898645515103e-05 -9.7025063087859664e-06  6.9524393174929216e-07 1.2586285054983162e-05 -5.6483159590395240e-06  4.8203942625777921e-07 1.5276328912595552e-05 -5.0484908212489028e-06  7.9510969353618417e-07 1.4849775874839219e-05 -4.9898124378537927e-07  3.6374917242649403e-07 1.6625129823321118e-05 3.5256147726986851e-08  7.6371814566600089e-07 1.4970957256993938e-05 5.0934359855001016e-06  1.4260745147526412e-07 1.5975110676841900e-05 5.0478543119286627e-06  7.6066811613286807e-07 1.3334059964468732e-05 9.7631096619041822e-06  -7.6071228531902386e-08 1.7108769873259164e-05 8.1272552322936775e-07  -7.9195553896778932e-07 -1.3855050332426719e-05 3.4367010857626855e-06  -4.5158202043928054e-07 -1.4588840494672636e-05 6.7550725054498842e-06  1.8291283072688276e-07 1.3644529565536725e-05 9.4084089259134459e-06  1.1823722752439491e-06 1.0222727088124945e-05 1.3405949418923040e-05  5.4877044541019559e-07 1.0206893138683620e-05 1.2594129638341737e-05  1.7709417532607506e-06 6.3542372803720878e-06 1.5918032339709475e-05  9.8253746949978691e-07 6.2372421153486275e-06 1.4556349059249232e-05  2.5483228944503048e-06 6.2210260996700583e-06 1.7212381276380674e-05  1.9693000777531660e-08 9.9271078981447900e-06 1.1360592029524318e-05  2.7406478217780267e-06 2.6257664663707137e-06 1.8005442973400790e-05  2.8857162234085707e-07 5.5004448190940960e-06 1.2733032893421558e-05  3.4947028375113222e-06 1.8227859538041865e-06 1.9756516883515608e-05  3.1824237542095574e-06 -1.9237173065602867e-06 1.8867401030086757e-05  -4.8353960374410075e-07 8.9132499182928317e-06 8.5139940075615821e-06  -1.6971109248959240e-06 -7.9598835725290982e-06 -4.7842747864415226e-06  -4.1223395206726810e-07 -1.1375708346656188e-05 8.9475989159212035e-06  3.4949153462332565e-06 -2.7909843314328119e-06 1.9750911406361279e-05  2.5763337155407084e-06 -6.3186639481501911e-06 1.7237687723159902e-05  1.1864136590682322e-06 1.8044079231833241e-06 1.5242482153005142e-05  1.6356172352814134e-06 1.1546682824232894e-05 1.0939057602281233e-05  -3.5820589598865205e-07 3.8674157306389531e-06 9.0736699138831450e-06  -1.5649169327079398e-06 1.1992208425012553e-05 -9.0504669341358214e-06  2.1221228337187152e-06 -4.9467335236810951e-06 1.6547221054280660e-05  3.5832835631023849e-06 1.2379837091123582e-06 1.9861991700850110e-05  -9.9499902718813721e-07 7.2664082650267800e-06 3.5660661771601185e-06  2.6717592599334219e-06 -7.3577543370816853e-06 1.6626302008771981e-05  1.5249685201823219e-06 -1.0737486066395318e-05 1.3330005782519899e-05  -5.6668274267094939e-07 1.3002309826891826e-05 7.0397157524758734e-06  -2.3352976499319456e-07 -1.6489790058209587e-05 4.0830187022599536e-06  -1.0338654435880051e-06 1.2374066385993645e-06 3.0872615566367493e-06  -2.9085433777480846e-07 -1.6535047723131145e-06 9.3819711843170561e-06  1.6623164233026118e-06 -1.1521628252248190e-05 1.1098623478627702e-05  6.7607370221743894e-07 -1.4358708685305656e-05 7.8016410140098322e-06  2.4814930313785781e-06 -7.6011788238443124e-06 1.4065152032080764e-05  7.5038518507510431e-08 1.4148985106829593e-05 -8.4510590612813470e-06  6.3484711313175397e-08 -1.1534530973224171e-05 1.0979086954473005e-05  3.9878868904896093e-07 -7.7054604932194111e-06 1.2871212302042782e-05  -7.2535810616845986e-07 1.5079137698296881e-05 -5.2081637136934256e-06  -1.0260614109905360e-06 1.4162698748463009e-05 -2.0151819792005754e-06  -1.5839464604003522e-06 1.0985337269049830e-05 -5.5382590661667058e-06  -1.5404434468227853e-06 4.9136346831162506e-06 -2.2779745672793906e-06  -8.5088202620980974e-07 -9.9750359787106997e-06 4.5450484767962844e-06  1.1017199365658568e-06 1.2172624764635623e-05 -2.9410444216588991e-07  5.4754982055804154e-07 -1.3000972519839302e-05 1.0413024396382316e-05  1.9173874549179945e-06 9.3872429136567205e-06 8.8264194554817058e-06  2.6757949468462972e-06 4.0402469129721378e-06 1.3527393297242433e-05  -5.1524913012751242e-07 1.6295611173062137e-05 8.9555060732774693e-07  -1.7834115617221041e-06 -3.0872293042541915e-06 -4.4542235341808082e-06  9.0177443745147768e-07 -1.4608765923920602e-05 4.2004468010202131e-06  -1.0286595534494553e-06 -4.6141035053720100e-06 2.9670520636289705e-06  -2.0865369465836863e-07 -6.9360368134955064e-06 1.0045453046815144e-05  5.3705573911632343e-07 -3.0915691404313719e-06 1.3429387878783366e-05  1.4076903595965189e-06 -3.7235934558276193e-06 1.5471369321435099e-05  2.3180924151501171e-06 -4.1373823612250770e-07 1.7217088142296499e-05  2.6146018157700925e-06 7.5606754258581151e-06 1.5244097479471452e-05  2.5133555012472694e-06 7.7770272571339162e-06 1.6339394028470714e-05  3.6864041231597580e-07 -1.6356188076974663e-05 2.5823541650962908e-06  1.1818369685084242e-06 1.3355737280048267e-05 4.6590341162188575e-06  -3.8686660585065623e-07 1.4605570789118221e-05 -7.7561248105198632e-06  -2.8961356846444836e-06 -3.8609885884272905e-06 -1.8431272597003063e-05  2.0998853666722198e-06 -5.3992911611942134e-06 8.1596510867712394e-06  2.7156357298312278e-07 -1.6802816512890980e-05 -2.2798264232514981e-06  -1.0268658502686160e-06 1.1819108908641244e-05 1.7137722383334740e-06  -1.3055534087750421e-06 3.7809930021249286e-06 -1.5477427291347803e-05  -9.0847686754806791e-07 1.1447094188066217e-05 -1.2076991555472762e-05  -5.5921579730616070e-07 1.0193271607518888e-05 -1.2624757949006340e-05  1.4228301026163709e-06 -9.1746975387624895e-06 1.4352027639669483e-05  -2.6746454382468261e-07 1.5908400716240633e-05 5.3994773237556997e-06  -2.4402948768130035e-07 1.3473352641210701e-05 8.8416753522793650e-06  1.5995778575675618e-06 -1.1316096839129085e-05 7.0159887370428052e-06  2.9315939776766930e-06 -2.0052431911384390e-06 1.5400324704978611e-05  3.3568138859040277e-06 -3.0442842006582053e-06 1.8794220010797209e-05  1.9811864024360058e-07 1.6568670718198935e-05 -3.7459961085069451e-06  -1.2258129973830780e-07 -1.7119165117394621e-05 -6.8045110687153345e-07  -1.7759010635253772e-06 -1.0355800712652512e-05 -1.3608703003203494e-05  -2.1416048876160208e-06 3.7006138438646509e-06 -1.6911275303981338e-05  -3.1110060689519697e-06 -4.6727131005316240e-06 -1.7559027105509768e-05  9.8668423340343003e-07 -8.1909193895376081e-06 1.4099561366771991e-05  -1.1646327916676706e-06 -1.2245840279106540e-05 -1.0027328116167368e-06  8.2712381762567792e-07 8.8630792043523948e-06 -5.1030506565485208e-06  3.8332667944910492e-07 1.3616423408497931e-06 1.2919288271840106e-05  9.1223684622399063e-07 -1.3541734515833650e-05 -1.0121615998038349e-06  -2.2493451411759660e-06 8.7522577803617709e-06 -1.2452196902463959e-05  -1.9440021466848899e-07 1.6550959400348258e-05 -2.9855243548045759e-06  1.6592773081768634e-06 1.0046694089539335e-05 1.4038782033072568e-05  -4.8351894540471649e-07 -7.5833514974565379e-06 -1.3300384855984029e-05  -2.2406989223913442e-06 5.0376237130422032e-06 -9.1895558782531209e-06  -2.2911118095874562e-06 -7.2501642811826728e-06 -1.6570142186450340e-05  1.8633374714453840e-06 3.5104833959802781e-06 1.6397467077089525e-05  -4.2835629520577421e-08 -1.4117036291954106e-05 8.6361797470492439e-06  8.0690488990247782e-08 -1.5788663863950400e-05 5.8104092299515727e-06  -1.2573193104719871e-06 6.5860913968741287e-06 -1.5110461530027179e-05  -1.4030924148483293e-06 9.3609048782071509e-06 -1.7185047113646724e-06  1.3684301067432079e-06 8.4448517991789912e-06 6.7272906589406012e-07  3.2061206084316568e-06 1.3939206326766101e-06 1.7262581819096856e-05  -5.4571922950310951e-07 1.5115073352550710e-05 5.3703145948379479e-06  -1.9991256386233587e-06 -6.6790300172282312e-06 -1.6202078644090333e-05  6.2927010092790965e-08 -1.7099390776505759e-05 1.4329389175559311e-06  3.2917007681981718e-06 4.2140611560697025e-06 1.9103876448807268e-05  3.1893702299743342e-06 3.8310542865851880e-06 1.7896181158755131e-05  -7.8524593172422998e-07 1.4350749962112953e-05 2.9025465744496228e-06  5.6336873820047573e-07 -1.1196120679313899e-05 1.2046601776645413e-05  -5.4296614206066954e-09 2.9868066246144262e-08 -7.4941161556069286e-09  1.8128621022101297e-07 -8.5759774738139077e-06 7.1119273490936721e-06  -5.5547824946168123e-07 3.2937259283556064e-06 -1.1136912475515204e-05  -5.3890667189530323e-07 9.1283193253239122e-06 2.4270627976503223e-06  -1.0349338743722406e-06 -6.3459699876139426e-06 -1.0454455843497887e-05  1.7843781136184045e-06 9.1957108001909315e-07 1.0708474031404913e-05  6.1261835051878866e-07 1.6485198089989342e-06 1.1501041655742958e-05  5.0483582004632025e-07 1.0298800830424217e-05 -4.4505372525089994e-07  6.0867328940657177e-07 -5.0938820973151388e-06 -4.9921069700899648e-06  -1.0960953800270637e-06 -9.5204813907700046e-07 1.7780280390294771e-06  -1.3471546791715574e-06 7.4847285629177244e-06 -9.3835002525437635e-06  1.2401198800490194e-06 -8.7136148697262617e-06 5.9051399906072608e-06  -5.5207248974942002e-08 -1.2372988055220594e-05 -1.8696144474991214e-06  1.3332660640180422e-06 3.3911482004065686e-06 3.9333262066876000e-07  -1.0400497773738501e-06 -9.7745154518592942e-06 -1.7230602562152564e-06  -1.9710072020875454e-06 -1.1400248767024276e-06 -1.0175266105700849e-05  8.3918085560257178e-07 9.2364709029856551e-06 9.3898932116778742e-06  1.5686675914975202e-06 -4.2373149355167720e-06 1.3988725733039518e-05  -1.9079465746261028e-06 5.4397301988442729e-07 -1.5187612110249700e-05  -1.6222099879605807e-06 5.9170013031098284e-06 -4.1696456524146665e-06  -4.3263952629841258e-07 1.2878606642369359e-05 -3.4278707088183624e-06  4.6600165757553140e-07 7.5690412871332487e-06 -7.0025778830512159e-06  -3.7901157036850542e-07 1.0288288460823098e-05 -9.4818166462598808e-06  -4.2653229024558698e-07 4.8271065194466281e-06 8.0892791075051911e-06  -6.0192032264259925e-07 -3.8397500145196880e-06 -1.2815797955149514e-05  1.5852426290984981e-06 8.5561388845587209e-06 7.6634986083203940e-06  6.5823140934165147e-08 -4.2766024630380496e-06 1.0920537544810453e-05  2.4918218835938153e-07 7.3616817849015554e-07 -9.8158033173738111e-06  -8.2059204137896811e-08 -1.0225388173182114e-05 -8.4909262627762304e-06  1.8636899341703309e-06 3.6896963708232709e-06 1.5273212475625684e-05  1.6547344078705366e-06 -4.2971178495537281e-06 3.3184489555712815e-06  5.0293653288765468e-07 -1.2981465129972827e-05 5.5171940486815912e-06  -3.3164781343902797e-07 -1.3570170970922389e-05 2.9007829002082473e-06  -9.6608067547286741e-07 -1.1940104071011892e-05 -7.3902128715360014e-06  1.7912039533811282e-08 9.9214976744946889e-06 9.4464267986576685e-06  7.0815355777940503e-07 -1.1915817084260246e-05 -1.6313844211802091e-06  2.1063085723732750e-07 1.3787151659428902e-05 3.4386179824799181e-06  2.1764524183523863e-06 -5.1927086569850954e-06 1.3350058939078616e-05  -1.4845465156285192e-06 6.3124095268677284e-06 -1.4428247512340369e-05  -3.2227028472923434e-07 6.9884520055992965e-06 -2.5887352797576024e-06  4.1620231605812538e-07 3.7733856335138661e-06 -3.3688732278128831e-06  </DataArray> 
</PointData> 
</Piece>
</UnstructuredGrid>
</VTKFile>