<?xml version="1.0"?>
<VTKFile type="UnstructuredGrid"  version="0.1"  >
<UnstructuredGrid>
<Piece  NumberOfPoints="201" NumberOfCells="657">
<Points>
<DataArray  type="Float64"  NumberOfComponents="3"  format="ascii">-1.21333388292658 -0.02120412430413906 2494.782796200016  1.209108845533984 0.00155582161071494 -2494.785704185313  1545.862552097924 0.02824322801336606 -2376.720709188563  2939.299389983893 0.02588788587910393 -2025.637929832459  4045.042009002357 0.001387678707317438 -1475.433942999818  4754.776535365701 0.009325126593153665 -780.0551375855174  4999.001195936634 -0.003932426348875548 -8.437735891901214  4753.828789863002 -0.01595206238151598 763.2578828097144  4043.335903690581 -0.007712699508047585 1459.439280509602  2937.127727806216 0.002781752288539029 2012.48006584367  1543.504385666908 0.0008536837412304955 2369.124109664896  1958.075580011598 -1510.117329181981 -2174.202454432609  1943.181608311423 1172.861050919046 2218.801611957591  4758.606882852522 -1343.735334339772 -378.3365107235759  3425.039349381092 -1466.436000279383 1657.448165090432  4327.36420633886 1359.063756314512 1042.036075204249  4310.587327146502 1359.217477504643 -1076.210362228462  2186.319561958081 1351.67347134209 -2146.174310111579  751.8694222435851 -1351.605187970596 2371.173943958414  3404.598932317115 -1351.488187607973 -1706.768687197622  2370.156729845666 -2651.812709443886 -1761.646856137542  3521.101891935282 -2598.836783940069 -1216.862985815468  2414.591318649338 -3715.175130882765 -1167.102579818025  3401.767638314003 -3486.245313903869 -578.4965874317461  2134.689717178868 -4422.923800481557 -490.1334525619319  3039.164969400918 -3968.962475866268 117.9301498660234  1596.434370823057 -4725.392912287723 219.3540109932542  2315.265423207228 -4105.136543909222 838.0670805772876  833.9162541408195 -4600.472675606919 894.1231196627066  1481.255903618934 -3752.598406646644 1476.27612741626  -58.06522280686575 -4031.16770986798 1482.231724266011  3550.523203398621 -3224.581938450303 704.3872761237974  3402.787851979091 1351.233344267566 1692.605568481068  3448.392909660033 2615.644158813714 1245.125517987232  4176.585259531716 2506.230561922499 559.4074686288217  553.4549467427676 -2995.424300382741 1980.306642728152  2028.76852115002 -2626.461580539376 1864.017518844473  2368.263484954897 2500.247497933161 1805.888996205479  2282.565010074442 3657.498333702644 1264.6676051297  4767.272010151854 -1310.934304813635 362.0548165588735  4203.671113748121 -2709.210420396326 35.76266260482607  4338.141789183289 -1360.473715598482 -1047.637241638181  754.108403279874 1351.700331591607 -2374.871943127532  3370.73266817002 1317.598751616114 -1730.001950324216  3423.219998664183 2601.937704618852 -1283.299226137848  1036.155289263889 -4463.342972531022 -1010.533860470978  -724.9668033140933 -4655.234863975732 849.2062421391915  1011.638257427616 -2720.052937853932 -2036.689958412363  4148.645270705203 2536.345137834441 -592.7677451095003  3102.657365351964 3664.409697585939 -710.3520587584412  2203.31052415545 3566.753900852584 -1369.417457857887  1739.493344782092 4441.73602504193 -763.1246195073895  768.7811893923925 4171.090284982493 -1330.064903015919  225.1170367258391 4808.749070809459 -690.1731050153371  -787.3019187972218 4291.432845403216 -1224.992744445814  -1299.678717655203 4722.549554997139 -517.9927097526137  -2290.260625905345 4033.1018490031 -935.9702403531988  -250.029483423409 5001.47703614144 46.50036595652993  -1597.30542992641 -3875.230407968951 1369.775046475378  -2206.019165106645 -4285.132873995692 680.6612915523561  -2689.433049532623 4191.086973631908 -249.5370278752521  -3552.157003192318 3278.146090874406 -638.5157218092172  -3784.113235084506 3270.869995556969 64.06035237845833  -4438.342213311962 2157.858391653569 -395.3432497690272  -4499.587536344766 2048.334639704547 383.633936185957  -3942.452213383688 2045.36971845202 -1139.867271577631  -3639.197684319671 3026.961073373899 815.614863887675  -4695.042176536173 894.5274391874684 -723.4150476514983  -4157.052171683998 1684.040835968842 1112.17714909681  -3995.914407529169 574.3207499616713 -1464.018332645202  -4487.531221641801 -649.6846649380319 -1042.550872223296  -3092.884713120695 2538.834421683648 1505.318605985397  -691.4949506245172 -2075.62764970896 2246.55361589707  -3012.650748045722 -3313.8931075788 1120.408401295564  -3590.558583112549 -880.1905390622163 -1672.5751926896  -3879.751421943681 -2065.768130367398 -1183.325745249748  -4803.62167247178 567.7683929369311 639.7617129249793  -1670.666478366952 3340.383394410867 -1659.334864591864  -3420.840120619595 1084.142635045331 1745.810396736047  1074.525513548868 3375.485149468634 1762.538358461412  -4627.867339588128 -1692.139234048222 -415.4105825589584  -2908.654840178165 351.6167418645421 -2015.251771998156  -2268.005514688603 1932.034623292691 2010.497791878336  -2795.413894576177 -2222.573101915763 -1741.992051111747  -2927.693635084752 -3309.155686867611 -1166.898435332856  -2468.301535153243 3726.839453213787 1129.157640967647  -1260.278588707007 -4836.159129046876 162.9020467314691  -2388.541122545676 325.3100679627964 2191.972334712906  -3528.685704800971 -469.9157831190122 1760.366992420159  -1689.48839565617 -3319.024520803492 -1665.144827589903  -1695.596455604436 -4231.074457302224 -1030.816877446176  -1455.301228211498 -2101.875936248785 -2142.156505137281  2535.164998745232 4314.446221831201 -74.76670511716479  -3409.275777415598 -3554.175832896761 448.6782387800081  -4104.90354305446 -2400.300949143819 781.9081351484297  895.0544052993648 4345.734685027918 1156.9613012722  -323.7440606547677 3919.683483376224 1547.146340232381  -112.7713676042356 2953.683723423369 2015.611584377735  -1355.241762179995 1248.064388031201 2323.385756126069  -2259.263960875233 -2710.455746850772 1775.562981641028  1179.530943904213 3300.227063092447 -1786.11258582916  -2802.243139490246 -4000.917897568019 -540.3720731007159  -369.2927503109073 2531.786474115968 -2144.794454050093  -819.1134877175322 1085.549528485724 -2399.073654594969  -556.6165475652838 4678.489866766045 848.7703262757882  -1057.291671107654 -768.4575882629093 2411.045986733867  -360.8571312357234 -4104.453297600693 -1419.418763983309  -2283.068055185391 -1234.777897320295 2138.71160118164  -3518.972001118911 -1987.603856859811 1478.203669138488  -4380.535429232971 -955.2236490451552 1113.437668729953  -4792.532985287061 -1239.918443050437 358.544837792318  -4977.344186609586 -161.2408986463587 -208.5270007882621  -1919.041376510243 2150.88642161546 -2035.763323305362  -2911.322581064791 2378.845322787062 -1640.775738128666  -425.0142922168812 -4714.027779401131 -816.3849147383899  -169.4932470583129 3700.845101615594 -1680.239354354423  1993.624058623624 4402.902825580409 648.7163118923934  4307.900212633849 -1300.18361310804 1079.798562724682  250.8882481207512 -1418.521697174827 -2390.319987629409  790.4792488824274 -4885.192790754775 -386.0214972658161  -1523.068177001512 3199.593791914556 1767.371504279342  4778.942262048428 1259.866727040058 -386.2708847854734  3194.091391704852 3630.845595837763 636.8852565719113  3768.284236412277 3290.643512799671 -34.90577727319981  -3816.712372129233 -2976.041608401635 -624.8288830822227  -1656.746912736966 4709.496683116491 197.2470554825245  -2779.428402700001 4061.316178648277 461.6143722543423  -270.3704301810851 -3062.356291184399 -1970.247751328438  -1163.652368454918 -558.9202391834178 -2407.385291927235  -2454.597268720894 -896.9352346703008 -2121.582223888525  1155.212726016784 4866.347846428125 -129.5434836066562  135.2987019733504 -4975.801304993782 277.3516712756257  2760.072097275029 -3164.168679446697 1353.129353241507  4786.97641754843 1275.919622813343 327.4568773682877  2185.435978127088 -1341.71691263044 2137.292814224836  -4228.494069591995 -2668.782560965217 68.7981835255804  -895.5562152559679 -3304.816761491684 1824.16618177596  2436.543402244851 2424.264156151056 -1819.817951620364  -4283.7602291121 399.1964351614711 1280.158523869086  1122.909079269731 -3729.842509911097 -1572.046453159993  1223.586913812452 2405.260507220649 2099.444610145655  712.1991944323867 4844.553906104816 523.6898004755147  -3108.865643315311 3139.325621908707 -1166.201880500682  4181.261649531517 -2413.733792270804 -659.9987521270737  -77.64006967760425 1302.903501509687 2409.047363092709  3786.244802268972 -2349.103219122153 1126.857681242856  -4853.684409211002 1193.332220072973 -48.63518375507721  -2584.467758016496 -4287.073587001372 28.44244453971082  -1578.266116628902 -4679.418235240097 -411.2241902708952  4484.965416155836 2211.991675178813 -24.9754815166664  -1116.718710852857 2467.872545262408 2101.941550777711  1389.421587739004 2241.104316668343 -2124.96849688175  -1684.07407240635 367.9843484494377 -2337.796238950231  -1828.335057990438 4382.080669855393 796.727371430187  4251.720946445693 -2244.756578222841 679.3478534860699  -340.5416505435512 -4971.655498919191 -250.2079688018526  -3204.956127742924 1301.869187074486 -1795.150102992367  -2189.901999181358 1106.511091164217 -2169.156872398939  -1398.564357567967 4029.50919969701 1311.618308312126  -3515.523294658815 -3549.758874732137 -133.7812486960588  -0.002727561636886051 0.0150178766343023 -0.003742962577254458  -1594.277359886009 -1960.560933922134 72.81724527930182  2410.603644951165 764.5536861232964 -17.01518866400189  -960.7063753453082 2060.80827157254 551.9757681330057  1796.495795420077 -1460.816485540576 495.8192380560819  -1169.841951765254 213.8232586739576 -1107.803071190454  -2479.309928032674 389.1129614591293 6.690112613865005  473.9858514357231 2331.033631632062 -478.4658009545324  1675.054802718855 -1148.709483097126 -751.4542427354277  -1303.261011225097 -218.2550353472174 1080.563007272813  1248.526812163704 1734.375386531345 865.8485034821383  -460.6704428418751 -1979.336849456974 -942.691347384809  412.5852400896113 -2858.580196956929 3.686404602302616  995.2939553993069 759.
[...]
<PointData  Vectors="Coriolis"> 
<DataArray  type="Float64"  Name="Coriolis"  NumberOfComponents="3" format="ascii">-5.2127166891337283e-12 -9.8307633363892599e-10 5.2127166891337953e-12  3.9198329263799359e-13 9.8342749037456203e-10 -3.9198329263807826e-13  6.9477518350298569e-12 3.4423751993282748e-11 -6.9477518350297382e-12  6.3629374326157611e-12 -8.5244736071474341e-10 -6.3629374326156537e-12  3.4013808550614970e-13 -1.4559655629832151e-09 -3.4013808550619060e-13  2.2903170614352649e-12 -1.7205965385966194e-09 -2.2903170614353259e-12  -9.6788427737623439e-13 -1.8267965297552048e-09 9.6788427737639777e-13  -3.9242659514090116e-12 -1.9233974807306980e-09 3.9242659514086093e-12  -1.8985834075123729e-12 -2.0329084924232900e-09 1.8985834075121988e-12  6.7334850498075345e-13 -2.0303948965896923e-09 -6.7334850498094257e-13  2.0776004265257565e-13 -1.7040638043948980e-09 -2.0776004265256492e-13  -7.1085324353802792e-10 -3.1734868714980145e-10 7.1085324353802812e-10  5.1521587205734192e-10 -1.7601799000065891e-09 -5.1521587205734316e-10  -4.9723657182814417e-10 -1.7421569308588927e-09 4.9723657182814428e-10  -5.7468717686852546e-10 -1.9450144671711188e-09 5.7468717686852515e-10  4.9732565775321955e-10 -1.9013099541713394e-09 -4.9732565775321955e-10  5.3871350619495110e-10 -1.5913584761293676e-09 -5.3871350619495090e-10  6.3725335387731160e-10 -4.4995532640510082e-10 -6.3725335387731139e-10  -6.2087780635423153e-10 -1.2706855949142588e-09 6.2087780635423174e-10  -5.9145839766995614e-10 -1.1689310913849075e-09 5.9145839766995531e-10  -1.1944355813364294e-09 -7.2496829090127486e-10 1.1944355813364294e-09  -1.0852591297530461e-09 -1.3285651986501095e-09 1.0852591297530461e-09  -1.5942199520543428e-09 -9.0989722682355221e-10 1.5942199520543428e-09  -1.3948743227991500e-09 -1.3356435439634316e-09 1.3948743227991488e-09  -1.8446394777147069e-09 -8.6675616553660322e-10 1.8446394777147069e-09  -1.5694157172281927e-09 -1.2499252655540050e-09 1.5694157172281931e-09  -1.9649926866281339e-09 -6.8979477926488526e-10 1.9649926866281348e-09  -1.6674667445615295e-09 -1.0835397871951392e-09 1.6674667445615295e-09  -1.9581012583079887e-09 -4.6252929864021572e-10 1.9581012583079900e-09  -1.6035837650141728e-09 -9.5235263146734795e-10 1.6035837650141730e-09  -1.7832391413673350e-09 -2.2539930119504903e-10 1.7832391413673379e-09  -1.2308947774219606e-09 -1.5334259235026433e-09 1.2308947774219600e-09  5.2917209257086261e-10 -1.9602598095014812e-09 -5.2917209257086292e-10  1.0093972414867388e-09 -1.6924327323113962e-09 -1.0093972414867386e-09  9.1963375649276967e-10 -1.6997979438442042e-09 -9.1963375649276967e-10  -1.3613271478897436e-09 -8.1882117316014263e-10 1.3613271478897417e-09  -1.1299207706384419e-09 -1.4775559774551556e-09 1.1299207706384423e-09  1.0458622451238917e-09 -1.5741882132640394e-09 -1.0458622451238919e-09  1.5036266409723692e-09 -1.2166253543347940e-09 -1.5036266409723692e-09  -4.7166833214308620e-10 -1.8220412520151948e-09 4.7166833214308630e-10  -1.0137078715207449e-09 -1.6316420829080659e-09 1.0137078715207437e-09  -5.4611782813139416e-10 -1.6045575005579225e-09 5.4611782813139416e-10  6.4412696031747361e-10 4.4730832991437200e-10 -6.4412696031747371e-10  5.7994613905983005e-10 -1.1526037885964108e-09 -5.7994613905983015e-10  1.0942410632867026e-09 -1.2787447954687871e-09 -1.0942410632867024e-09  -1.9336608695189792e-09 -3.4971621744431277e-10 1.9336608695189788e-09  -2.0094217542568092e-09 2.4890447952033625e-10 2.0094217542568092e-09  -1.2652282664785332e-09 5.5957658633765932e-11 1.2652282664785332e-09  9.8765672264365760e-10 -1.5771551536548571e-09 -9.8765672264365905e-10  1.4956064179494136e-09 -1.2244820388797237e-09 -1.4956064179494136e-09  1.5541918616030394e-09 -7.8280962354474693e-10 -1.5541918616030392e-09  1.8863182900586134e-09 -6.8247592682078970e-10 -1.8863182900586155e-09  1.8336999173129685e-09 -1.5975130984670274e-10 -1.8336999173129702e-09  2.0528642754387465e-09 -4.0578009783293658e-11 -2.0528642754387465e-09  1.8487058518799988e-09 5.3421408336168045e-10 -1.8487058518799981e-09  1.9726265822336198e-09 6.0525695093611419e-10 -1.9726265822336202e-09  1.6466131377073282e-09 1.1108438340055534e-09 -1.6466131377073276e-09  2.1125607565711586e-09 1.0967983590819929e-10 -2.1125607565711578e-09  -1.7108676990218153e-09 5.2185693288533995e-10 1.7108676990218163e-09  -1.8014394023911644e-09 8.8929610968360699e-10 1.8014394023911673e-09  1.6848866179675535e-09 1.1383722474060521e-09 -1.6848866179675566e-09  1.2624416483839246e-09 1.5083388771025695e-09 -1.2624416483839242e-09  1.2604296819324773e-09 1.4863300958850958e-09 -1.2604296819324767e-09  7.8473511483656759e-10 1.7457004890589005e-09 -7.8473511483656832e-10  7.7024078931221868e-10 1.6749185202450691e-09 -7.7024078931221847e-10  7.6834253528515509e-10 1.8095720376571689e-09 -7.6834253528515560e-10  1.2258463586937670e-09 1.3994077536681454e-09 -1.2258463586937674e-09  3.2429975719841591e-10 1.8836701979624561e-09 -3.2429975719841585e-10  6.7923461127826195e-10 1.5355578576146742e-09 -6.7923461127826112e-10  2.2514407528035438e-10 2.0068251515060009e-09 -2.2514407528035461e-10  -2.3760084242436433e-10 1.9355682264929407e-09 2.3760084242436453e-10  1.1006554986035330e-09 1.1102650491129913e-09 -1.1006554986035324e-09  -9.8304767004648920e-10 -3.8094221876238896e-10 9.8304767004648837e-10  -1.4047080875118510e-09 1.1549757002600819e-09 1.4047080875118508e-09  -3.4474196800211814e-10 2.0061301913407404e-09 3.4474196800211762e-10  -7.8040501743503663e-10 1.8092401365230510e-09 7.8040501743503714e-10  2.2283190939852702e-10 1.7344071899124879e-09 -2.2283190939852704e-10  1.4260043334568698e-09 1.1480188617607278e-09 -1.4260043334568706e-09  4.7758017547112958e-10 1.1638278838201998e-09 -4.7758017547112865e-10  1.4810058970049552e-09 -9.2367249550885910e-10 -1.4810058970049568e-09  -6.1092113079819038e-10 1.7800032323015351e-09 6.1092113079819007e-10  1.5291736503223360e-10 2.0089722401128353e-09 -1.5291736503223352e-10  8.9733640344442537e-10 5.6282929302705458e-10 -8.9733640344442496e-10  -9.0877396793070757e-10 1.7220602408988579e-09 9.0877396793070829e-10  -1.3260545053117494e-09 1.4567148795438128e-09 1.3260545053117514e-09  1.6055538600799469e-09 9.3863107500434583e-10 -1.6055538600799455e-09  -2.0361451937513440e-09 5.3265113533731206e-10 2.0361451937513469e-09  1.5281417134511759e-10 5.0851662827959833e-10 -1.5281417134511748e-10  -2.0418631969091408e-10 1.1935482441978900e-09 2.0418631969091442e-10  -1.4229155834010551e-09 1.1644164588888282e-09 1.4229155834010532e-09  -1.7731221129764414e-09 8.7922872170208599e-10 1.7731221129764405e-09  -9.3883909139556941e-10 1.4294784525263093e-09 9.3883909139556920e-10  1.7471440624641428e-09 -1.0520735537665598e-09 -1.7471440624641426e-09  -1.4243354390280386e-09 1.3469285120400195e-09 1.4243354390280390e-09  -9.5152292572913690e-10 1.5390105169626454e-09 9.5152292572913607e-10  1.8620573700445149e-09 -5.5309937942979143e-10 -1.8620573700445157e-09  1.7489092669446200e-09 -1.2198006774589688e-10 -1.7489092669446196e-09  1.3566542128941087e-09 -4.8791382263820610e-10 -1.3566542128941081e-09  6.0682964598769815e-10 -9.1012756992230654e-11 -6.0682964598769835e-10  -1.2317923125009342e-09 6.6586100699745666e-10 1.2317923125009356e-09  1.5031791503187635e-09 -1.7229384916668964e-10 -1.5031791503187641e-09  -1.6054577015951697e-09 1.2173364568319305e-09 1.6054577015951693e-09  1.1593554902604312e-09 8.5256573193921802e-10 -1.1593554902604312e-09  4.9903778364310473e-10 1.3391623344611914e-09 -4.9903778364310411e-10  2.0121837431931265e-09 1.7414578520802561e-10 -2.0121837431931257e-09  -3.8127970165213338e-10 -3.2959340877976905e-10 3.8127970165213353e-10  -1.8039989059772835e-09 4.0698431637537922e-10 1.8039989059772841e-09  -5.6980960985450828e-10 4.9304474238994720e-10 5.6980960985450869e-10  -8.5650384330813674e-10 1.2652899681607361e-09 8.5650384330813746e-10  -3.8177067015217306e-10 1.5908027689869203e-09 3.8177067015217296e-10  -4.5983718612978650e-10 1.7353527846879156e-09 4.5983718612978635e-10  -5.1096699376888462e-11 1.8384672652426649e-09 5.1096699376888378e-11  9.3384244824321387e-10 1.5585505044411643e-09 -9.3384244824321304e-10  9.6054293447430461e-10 1.7061912073479321e-09 -9.6054293447430461e-10  -2.0196840148463318e-09 2.7311510036683555e-10 2.0196840148463313e-09  1.6493109869551817e-09 4.2902103577146523e-10 -1.6493109869551794e-09  1.8035612149710860e-09 -9.0929790694030239e-10 -1.8035612149710860e-09  -4.7686888677161534e-10 -1.9170810878780793e-09 4.7686888677161565e-10  -6.6685556806256095e-10 7.4779497621903043e-10 6.6685556806256084e-10  -2.0747895466445959e-09 -3.1485043318487051e-10 2.0747895466445959e-09  1.4595155199718372e-09 3.3823490944044187e-10 -1.4595155199718368e-09  4.6692383667681804e-10 -1.7487144226290206e-09 -4.6692383667681825e-10  1.4136092221543583e-09 -1.3781345626017168e-09 -1.4136092221543579e-09  1.2587441763564096e-09 -1.4888203031860376e-09 -1.2587441763564114e-09  -1.1330333706029995e-09 1.5954137080984011e-09 1.1330333706029995e-09  1.9643632156451430e-09 6.9928567330963929e-10 -1.9643632156451425e-09  1.6637166908017641e-09 1.1211445766238566e-09 -1.6637166908017633e-09  -1.3975160991806196e-09 6.6834593230623325e-10 1.3975160991806190e-09  -2.4769216767244414e-10 1.5387531974332934e-09 2.4769216767244398e-10  -3.7604115658690108e-10 1.9051382752592849e-09 3.7604115658690103e-10  2.0458788753923508e-09 -4.8668738837771400e-10 -2.0458788753923479e-09  -2.1138514776869611e-09 -6.8813906529734192e-11 2.1138514776869607e-09  -1.2789445370986269e-09 -1.4601513832088606e-09 1.2789445370986256e-09  4.5702586630877598e-10 -1.8225261664867582e-09 -4.5702586630877644e-10  -5.7717450274488024e-10 -1.7830123228663097e-09 5.7717450274488055e-10  -1.0115026481801647e-09 1.6180488365384415e-09 1.0115026481801645e-09  -1.5122397501751150e-09 2.0033469082405998e-11 1.5122397501751138e-09  1.0944801260437038e-09 -7.3177952498629774e-10 -1.0944801260437034e-09  1.6814880087279943e-10 1.5468298703159590e-09 -1.6814880087279940e-10  -1.6722101851419414e-09 -2.3752390882706970e-10 1.6722101851419418e-09  1.0809763364138761e-09 -1.2590533372812932e-09 -1.0809763364138769e-09  2.0437125899594842e-09 -3.4437181821854585e-10 -2.0437125899594846e-09  1.2407599431181505e-09 1.5276158649324279e-09 -1.2407599431181509e-09  -9.3644717324739240e-10 -1.5815204032623499e-09 9.3644717324739199e-10  6.2219144555666611e-10 -8.5751350783412341e-10 -6.2219144555666642e-10  -8.9543165775988533e-10 -1.7620468477037166e-09 8.9543165775988450e-10  4.3353605050352238e-10 1.7934349008204383e-09 -4.3353605050352249e-10  -1.7432094896296797e-09 1.0709420057132898e-09 1.7432094896296818e-09  -1.9496091912535378e-09 7.0699600808677327e-10 1.9496091912535390e-09  8.1333596662073015e-10 -1.7094042986468604e-09 -8.1333596662073077e-10  1.1560227191958084e-09 -3.8888598521534073e-11 -1.1560227191958088e-09  1.0428915865256383e-09 -8.5875890642993957e-11 -1.0428915865256383e-09  1.7217844212440880e-10 1.7347140299022751e-09 -1.7217844212440852e-10  1.8664110426521251e-09 7.3005601293348424e-10 -1.8664110426521243e-09  -8.2486148545470426e-10 -1.7526160459810732e-09 8.2486148545470406e-10  -2.1114115680489589e-09 1.6903733781496403e-10 2.1114115680489581e-09  5.2052151505657554e-10 1.9513593704846150e-09 -5.2052151505657471e-10  4.7322101353454503e-10 1.8149630842025521e-09 -4.7322101353454482e-10  1.7720703344812535e-09 4.5512386534997575e-10 -1.7720703344812531e-09  -1.3825862482907323e-09 1.4169652618163646e-09 1.3825862482907323e-09  3.6874270154536403e-12 -2.5618833672750221e-13 -3.6874270154531346e-12  -1.0590622419537554e-09 8.5527071235239086e-10 1.0590622419537563e-09  4.0675600550425301e-10 -1.3057985688155189e-09 -4.0675600550425260e-10  1.1272668831953660e-09 3.6603907784752487e-10 -1.1272668831953658e-09  -7.8370060157266326e-10 -1.1624036535489446e-09 7.8370060157266347e-10  1.1357125671992350e-10 1.1012671062973859e-09 -1.1357125671992305e-10  2.0358469897183591e-10 1.3436802603635059e-09 -2.0358469897183526e-10  1.2718057412080952e-09 -1.1724594745933745e-10 -1.2718057412080932e-09  -6.2905318453574657e-10 -6.9118412800741039e-10 6.2905318453574637e-10  -1.1757436441628997e-10 3.5471372258016755e-10 1.1757436441628965e-10  9.2434133177668817e-10 -9.9169568883434973e-10 -9.2434133177668828e-10  -1.0760867884181729e-09 5.7564406622125928e-10 1.0760867884181731e-09  -1.5279224345825056e-09 -2.2390006883290983e-10 1.5279224345825060e-09  4.1878975401067720e-10 -1.1603417926775529e-10 -4.1878975401067695e-10  -1.2070754576433961e-09 -8.4242906823507590e-11 1.2070754576433994e-09  -1.4079689385362527e-10 -1.0124265140178980e-09 1.4079689385362524e-10  1.1406422655012203e-09 1.0551762698350523e-09 -1.1406422655012210e-09  -5.2330471185989600e-10 1.5326915925214914e-09 5.2330471185989631e-10  6.7181322843985389e-11 -1.6387855160538544e-09 -6.7181322843984963e-11  7.3073343171781983e-10 -3.1431617602886759e-10 -7.3073343171782045e-10  1.5903567394624220e-09 -3.6959513345453021e-10 -1.5903567394624220e-09  9.3469876947087468e-10 -9.2166085450090009e-10 -9.3469876947087530e-10  1.2705003004525106e-09 -1.1233008226190409e-09 -1.2705003004525110e-09  5.9610418575112163e-10 1.0508850069106088e-09 -5.9610418575112101e-10  -4.7418171025025613e-10 -1.5072258727833964e-09 4.7418171025025654e-10  1.0566585357867490e-09 7.5004115110496966e-10 -1.0566585357867490e-09  -5.2812133688376983e-10 1.3394939264487751e-09 5.2812133688376941e-10  9.0909452636305939e-11 -1.2420476376485150e-09 -9.0909452636306250e-11  -1.2627221421766683e-09 -1.0376733645390054e-09 1.2627221421766672e-09  4.5568429762567426e-10 1.6548022605363105e-09 -4.5568429762567447e-10  -5.3068164051132184e-10 2.0526616835074476e-10 5.3068164051132173e-10  -1.6030614590257024e-09 6.1874604169279596e-10 1.6030614590257034e-09  -1.6757277867853582e-09 3.9890585818715959e-10 1.6757277867853572e-09  -1.4745021443018202e-09 -7.9271569746219727e-10 1.4745021443018213e-09  1.2251896979383728e-09 1.1634971121382461e-09 -1.2251896979383724e-09  -1.4714630541805815e-09 -2.8873915851170222e-10 1.4714630541805811e-09  1.7025278486459904e-09 3.9832902467826066e-10 -1.7025278486459898e-09  -6.4132314680999170e-10 1.3788706949573712e-09 6.4132314680999243e-10  7.7956863486266160e-10 -1.5972945805476495e-09 -7.7956863486266129e-10  8.6302529798667549e-10 -2.7968048001010006e-10 -8.6302529798667611e-10  4.6598821866817158e-10 -4.6711710997107679e-10 -4.6598821866817138e-10  </DataArray> 
</PointData> 
</Piece>
</UnstructuredGrid>
</VTKFile>