<?xml version="1.0"?>
<VTKFile type="UnstructuredGrid"  version="0.1"  >
<UnstructuredGrid>
<Piece  NumberOfPoints="201" NumberOfCells="657">
<Points>
<DataArray  type="Float64"  NumberOfComponents="3"  format="ascii">-1.21333388292658 -0.02120412430413906 2494.782796200016  1.209108845533984 0.00155582161071494 -2494.785704185313  1545.862552097924 0.02824322801336606 -2376.720709188563  2939.299389983893 0.02588788587910393 -2025.637929832459  4045.042009002357 0.001387678707317438 -1475.433942999818  4754.776535365701 0.009325126593153665 -780.0551375855174  4999.001195936634 -0.003932426348875548 -8.437735891901214  4753.828789863002 -0.01595206238151598 763.2578828097144  4043.335903690581 -0.007712699508047585 1459.439280509602  2937.127727806216 0.002781752288539029 2012.48006584367  1543.504385666908 0.0008536837412304955 2369.124109664896  1958.075580011598 -1510.117329181981 -2174.202454432609  1943.181608311423 1172.861050919046 2218.801611957591  4758.606882852522 -1343.735334339772 -378.3365107235759  3425.039349381092 -1466.436000279383 1657.448165090432  4327.36420633886 1359.063756314512 1042.036075204249  4310.587327146502 1359.217477504643 -1076.210362228462  2186.319561958081 1351.67347134209 -2146.174310111579  751.8694222435851 -1351.605187970596 2371.173943958414  3404.598932317115 -1351.488187607973 -1706.768687197622  2370.156729845666 -2651.812709443886 -1761.646856137542  3521.101891935282 -2598.836783940069 -1216.862985815468  2414.591318649338 -3715.175130882765 -1167.102579818025  3401.767638314003 -3486.245313903869 -578.4965874317461  2134.689717178868 -4422.923800481557 -490.1334525619319  3039.164969400918 -3968.962475866268 117.9301498660234  1596.434370823057 -4725.392912287723 219.3540109932542  2315.265423207228 -4105.136543909222 838.0670805772876  833.9162541408195 -4600.472675606919 894.1231196627066  1481.255903618934 -3752.598406646644 1476.27612741626  -58.06522280686575 -4031.16770986798 1482.231724266011  3550.523203398621 -3224.581938450303 704.3872761237974  3402.787851979091 1351.233344267566 1692.605568481068  3448.392909660033 2615.644158813714 1245.125517987232  4176.585259531716 2506.230561922499 559.4074686288217  553.4549467427676 -2995.424300382741 1980.306642728152  2028.76852115002 -2626.461580539376 1864.017518844473  2368.263484954897 2500.247497933161 1805.888996205479  2282.565010074442 3657.498333702644 1264.6676051297  4767.272010151854 -1310.934304813635 362.0548165588735  4203.671113748121 -2709.210420396326 35.76266260482607  4338.141789183289 -1360.473715598482 -1047.637241638181  754.108403279874 1351.700331591607 -2374.871943127532  3370.73266817002 1317.598751616114 -1730.001950324216  3423.219998664183 2601.937704618852 -1283.299226137848  1036.155289263889 -4463.342972531022 -1010.533860470978  -724.9668033140933 -4655.234863975732 849.2062421391915  1011.638257427616 -2720.052937853932 -2036.689958412363  4148.645270705203 2536.345137834441 -592.7677451095003  3102.657365351964 3664.409697585939 -710.3520587584412  2203.31052415545 3566.753900852584 -1369.417457857887  1739.493344782092 4441.73602504193 -763.1246195073895  768.7811893923925 4171.090284982493 -1330.064903015919  225.1170367258391 4808.749070809459 -690.1731050153371  -787.3019187972218 4291.432845403216 -1224.992744445814  -1299.678717655203 4722.549554997139 -517.9927097526137  -2290.260625905345 4033.1018490031 -935.9702403531988  -250.029483423409 5001.47703614144 46.50036595652993  -1597.30542992641 -3875.230407968951 1369.775046475378  -2206.019165106645 -4285.132873995692 680.6612915523561  -2689.433049532623 4191.086973631908 -249.5370278752521  -3552.157003192318 3278.146090874406 -638.5157218092172  -3784.113235084506 3270.869995556969 64.06035237845833  -4438.342213311962 2157.858391653569 -395.3432497690272  -4499.587536344766 2048.334639704547 383.633936185957  -3942.452213383688 2045.36971845202 -1139.867271577631  -3639.197684319671 3026.961073373899 815.614863887675  -4695.042176536173 894.5274391874684 -723.4150476514983  -4157.052171683998 1684.040835968842 1112.17714909681  -3995.914407529169 574.3207499616713 -1464.018332645202  -4487.531221641801 -649.6846649380319 -1042.550872223296  -3092.884713120695 2538.834421683648 1505.318605985397  -691.4949506245172 -2075.62764970896 2246.55361589707  -3012.650748045722 -3313.8931075788 1120.408401295564  -3590.558583112549 -880.1905390622163 -1672.5751926896  -3879.751421943681 -2065.768130367398 -1183.325745249748  -4803.62167247178 567.7683929369311 639.7617129249793  -1670.666478366952 3340.383394410867 -1659.334864591864  -3420.840120619595 1084.142635045331 1745.810396736047  1074.525513548868 3375.485149468634 1762.538358461412  -4627.867339588128 -1692.139234048222 -415.4105825589584  -2908.654840178165 351.6167418645421 -2015.251771998156  -2268.005514688603 1932.034623292691 2010.497791878336  -2795.413894576177 -2222.573101915763 -1741.992051111747  -2927.693635084752 -3309.155686867611 -1166.898435332856  -2468.301535153243 3726.839453213787 1129.157640967647  -1260.278588707007 -4836.159129046876 162.9020467314691  -2388.541122545676 325.3100679627964 2191.972334712906  -3528.685704800971 -469.9157831190122 1760.366992420159  -1689.48839565617 -3319.024520803492 -1665.144827589903  -1695.596455604436 -4231.074457302224 -1030.816877446176  -1455.301228211498 -2101.875936248785 -2142.156505137281  2535.164998745232 4314.446221831201 -74.76670511716479  -3409.275777415598 -3554.175832896761 448.6782387800081  -4104.90354305446 -2400.300949143819 781.9081351484297  895.0544052993648 4345.734685027918 1156.9613012722  -323.7440606547677 3919.683483376224 1547.146340232381  -112.7713676042356 2953.683723423369 2015.611584377735  -1355.241762179995 1248.064388031201 2323.385756126069  -2259.263960875233 -2710.455746850772 1775.562981641028  1179.530943904213 3300.227063092447 -1786.11258582916  -2802.243139490246 -4000.917897568019 -540.3720731007159  -369.2927503109073 2531.786474115968 -2144.794454050093  -819.1134877175322 1085.549528485724 -2399.073654594969  -556.6165475652838 4678.489866766045 848.7703262757882  -1057.291671107654 -768.4575882629093 2411.045986733867  -360.8571312357234 -4104.453297600693 -1419.418763983309  -2283.068055185391 -1234.777897320295 2138.71160118164  -3518.972001118911 -1987.603856859811 1478.203669138488  -4380.535429232971 -955.2236490451552 1113.437668729953  -4792.532985287061 -1239.918443050437 358.544837792318  -4977.344186609586 -161.2408986463587 -208.5270007882621  -1919.041376510243 2150.88642161546 -2035.763323305362  -2911.322581064791 2378.845322787062 -1640.775738128666  -425.0142922168812 -4714.027779401131 -816.3849147383899  -169.4932470583129 3700.845101615594 -1680.239354354423  1993.624058623624 4402.902825580409 648.7163118923934  4307.900212633849 -1300.18361310804 1079.798562724682  250.8882481207512 -1418.521697174827 -2390.319987629409  790.4792488824274 -4885.192790754775 -386.0214972658161  -1523.068177001512 3199.593791914556 1767.371504279342  4778.942262048428 1259.866727040058 -386.2708847854734  3194.091391704852 3630.845595837763 636.8852565719113  3768.284236412277 3290.643512799671 -34.90577727319981  -3816.712372129233 -2976.041608401635 -624.8288830822227  -1656.746912736966 4709.496683116491 197.2470554825245  -2779.428402700001 4061.316178648277 461.6143722543423  -270.3704301810851 -3062.356291184399 -1970.247751328438  -1163.652368454918 -558.9202391834178 -2407.385291927235  -2454.597268720894 -896.9352346703008 -2121.582223888525  1155.212726016784 4866.347846428125 -129.5434836066562  135.2987019733504 -4975.801304993782 277.3516712756257  2760.072097275029 -3164.168679446697 1353.129353241507  4786.97641754843 1275.919622813343 327.4568773682877  2185.435978127088 -1341.71691263044 2137.292814224836  -4228.494069591995 -2668.782560965217 68.7981835255804  -895.5562152559679 -3304.816761491684 1824.16618177596  2436.543402244851 2424.264156151056 -1819.817951620364  -4283.7602291121 399.1964351614711 1280.158523869086  1122.909079269731 -3729.842509911097 -1572.046453159993  1223.586913812452 2405.260507220649 2099.444610145655  712.1991944323867 4844.553906104816 523.6898004755147  -3108.865643315311 3139.325621908707 -1166.201880500682  4181.261649531517 -2413.733792270804 -659.9987521270737  -77.64006967760425 1302.903501509687 2409.047363092709  3786.244802268972 -2349.103219122153 1126.857681242856  -4853.684409211002 1193.332220072973 -48.63518375507721  -2584.467758016496 -4287.073587001372 28.44244453971082  -1578.266116628902 -4679.418235240097 -411.2241902708952  4484.965416155836 2211.991675178813 -24.9754815166664  -1116.718710852857 2467.872545262408 2101.941550777711  1389.421587739004 2241.104316668343 -2124.96849688175  -1684.07407240635 367.9843484494377 -2337.796238950231  -1828.335057990438 4382.080669855393 796.727371430187  4251.720946445693 -2244.756578222841 679.3478534860699  -340.5416505435512 -4971.655498919191 -250.2079688018526  -3204.956127742924 1301.869187074486 -1795.150102992367  -2189.901999181358 1106.511091164217 -2169.156872398939  -1398.564357567967 4029.50919969701 1311.618308312126  -3515.523294658815 -3549.758874732137 -133.7812486960588  -0.002727561636886051 0.0150178766343023 -0.003742962577254458  -1594.277359886009 -1960.560933922134 72.81724527930182  2410.603644951165 764.5536861232964 -17.01518866400189  -960.7063753453082 2060.80827157254 551.9757681330057  1796.495795420077 -1460.816485540576 495.8192380560819  -1169.841951765254 213.8232586739576 -1107.803071190454  -2479.309928032674 389.1129614591293 6.690112613865005  473.9858514357231 2331.033631632062 -478.4658009545324  1675.054802718855 -1148.709483097126 -751.4542427354277  -1303.261011225097 -218.2550353472174 1080.563007272813  1248.526812163704 1734.375386531345 865.8485034821383  -460.6704428418751 -1979.336849456974 -942.691347384809  412.5852400896113 -2858.580196956929 3.686404602302616  995.2939553993069 759.
[...]
<PointData  Vectors="Centrifugal"> 
<DataArray  type="Float64"  Name="Centrifugal"  NumberOfComponents="3" format="ascii">-1.9017051830889858e-05 -2.2803646818678214e-10 1.9017051830889842e-05  1.9017044963756962e-05 1.6598465454662718e-11 -1.9017044963756962e-05  2.9872493230939538e-05 3.0367825998568097e-10 -2.9872493230939532e-05  3.7802394648002762e-05 2.7844971616653283e-10 -3.7802394648002755e-05  4.2027565471399200e-05 1.4952635946041785e-11 -4.2027565471399187e-05  4.2134479897196404e-05 1.0033506772277914e-10 -4.2134479897196417e-05  3.8117187407395220e-05 -4.2264869544129647e-11 -3.8117187407395213e-05  3.0372415420175283e-05 -1.7151092073965743e-10 -3.0372415420175290e-05  1.9658981645910951e-05 -8.2900666278070698e-11 -1.9658981645910938e-05  7.0231016425493868e-06 3.0078423930259054e-11 -7.0231016425493868e-06  -6.3029745908476818e-06 9.2297859656206331e-12 6.3029745908476843e-06  3.1466206040834588e-05 -2.2987461678721283e-05 -3.1466206040834581e-05  -2.1149984548574754e-06 1.7854318228325898e-05 2.1149984548574868e-06  3.9104191120733162e-05 -2.0457207597930414e-05 -3.9104191120733270e-05  1.3443260777837704e-05 -2.2324637698523790e-05 -1.3443260777837702e-05  2.5001885988802333e-05 2.0690672395000379e-05 -2.5001885988802323e-05  4.1008314008261631e-05 2.0692258674573140e-05 -4.1008314008261631e-05  3.2989728918473939e-05 2.0575563453899063e-05 -3.2989728918473905e-05  -1.2343283110301821e-05 -2.0574823501672188e-05 1.2343283110301819e-05  3.8914642205866455e-05 -2.0573574598301324e-05 -3.8914642205866482e-05  3.1458880045029508e-05 -4.0367672260540328e-05 -3.1458880045029515e-05  3.6069563715553989e-05 -3.9562789969640014e-05 -3.6069563715553976e-05  2.7267870702738162e-05 -5.6556328818249944e-05 -2.7267870702738162e-05  3.0299278773768761e-05 -5.3073157932108646e-05 -3.0299278773768771e-05  1.9981276197059971e-05 -6.7331397867451085e-05 -1.9981276197059998e-05  2.2235089365909085e-05 -6.0422183394067292e-05 -2.2235089365909085e-05  1.0480782952293276e-05 -7.1936074830441699e-05 -1.0480782952293283e-05  1.1239638267003112e-05 -6.2494448702628413e-05 -1.1239638267003109e-05  -4.6271525674066673e-07 -7.0033556931002697e-05 4.6271525674066557e-07  2.9247784556339917e-08 -5.7126150093856745e-05 -2.9247784556340089e-08  -1.1732085845746350e-05 -6.1365731018717340e-05 1.1732085845746363e-05  2.1660596366120609e-05 -4.9090784065806177e-05 -2.1660596366120589e-05  1.3005928226927816e-05 2.0570829439588970e-05 -1.3005928226927809e-05  1.6763424663416040e-05 3.9820164925267692e-05 -1.6763424663416047e-05  2.7530900533644148e-05 3.8155333589317082e-05 -2.7530900533644151e-05  -1.0873555862412181e-05 -4.5598140350981528e-05 1.0873555862412193e-05  1.2411920474684443e-06 -3.9982730396850218e-05 -1.2411920474684437e-06  4.2683879499372859e-06 3.8061910288877371e-05 -4.2683879499372859e-06  7.7406495134677786e-06 5.5679513000261215e-05 -7.7406495134677718e-06  3.3531050190235941e-05 -1.9958085316675566e-05 -3.3531050190235900e-05  3.1725574893949095e-05 -4.1245180214042442e-05 -3.1725574893949088e-05  4.1000436213257593e-05 -2.0711257468901443e-05 -4.1000436213257607e-05  2.3832622452191486e-05 2.0575848454185333e-05 -2.3832622452191490e-05  3.8833816041146189e-05 2.0057618573511360e-05 -3.8833816041146182e-05  3.5830545226433914e-05 3.9609856163371718e-05 -3.5830545226433928e-05  1.5583244038227800e-05 -6.7945396484246626e-05 -1.5583244038227797e-05  -1.1985746476008090e-05 -7.0866697637089735e-05 1.1985746476008075e-05  2.3214856926267814e-05 -4.1405742827912755e-05 -2.3214856926267794e-05  3.6093558177855500e-05 3.8612765058231287e-05 -3.6093558177855500e-05  2.9026573311690534e-05 5.5784922482368149e-05 -2.9026573311690530e-05  2.7200749099657403e-05 5.4296473165042856e-05 -2.7200749099657400e-05  1.9052309162765623e-05 6.7617165525845282e-05 -1.9052309162765640e-05  1.5982172411910934e-05 6.3495954087621910e-05 -1.5982172411910937e-05  6.9699637856506098e-06 7.3204061628737350e-05 -6.9699637856506115e-06  3.3380729866706056e-06 6.5328603650801405e-05 -3.3380729866706065e-06  -5.9473657127158260e-06 7.1892629224760846e-05 5.9473657127158294e-06  -1.0303392025737806e-05 6.1397677479475279e-05 1.0303392025737804e-05  -2.2572049008947452e-06 7.6138389140702336e-05 2.2572049008947461e-06  -2.2590856807369759e-05 -5.8991986722300721e-05 2.2590856807369746e-05  -2.1975228280053761e-05 -6.5233508678325201e-05 2.1975228280053764e-05  -1.8570500998162562e-05 6.3803230591837954e-05 1.8570500998162559e-05  -2.2174907515380405e-05 4.9906038330372736e-05 2.2174907515380401e-05  -2.9291978337206249e-05 4.9795252684802281e-05 2.9291978337206249e-05  -3.0773295997622908e-05 3.2851777708702736e-05 3.0773295997622908e-05  -3.7172600711052166e-05 3.1183898613079153e-05 3.7172600711052159e-05  -2.1326421919961665e-05 3.1138776685700705e-05 2.1326421919961685e-05  -3.3912590047310141e-05 4.6080936362304641e-05 3.3912590047310135e-05  -3.0228512044766125e-05 1.3618528981883725e-05 3.0228512044766135e-05  -4.0113488008917829e-05 2.5637043098893027e-05 4.0113488008917836e-05  -1.9263212359893845e-05 8.7433073972538670e-06 1.9263212359893859e-05  -2.6217395156496219e-05 -9.8909385618556134e-06 2.6217395156496212e-05  -3.5007207231723384e-05 3.8648621566330747e-05 3.5007207231723378e-05  -2.2377989415633116e-05 -3.1595722197486186e-05 2.2377989415633099e-05  -3.1464524573443923e-05 -5.0447904552781331e-05 3.1464524573443923e-05  -1.4588006446193553e-05 -1.3399794058415194e-05 1.4588006446193549e-05  -2.0517975923733231e-05 -3.1449242762559502e-05 2.0517975923733225e-05  -4.1437935556545404e-05 8.6435506289707927e-06 4.1437935556545459e-05  -7.5837786491099537e-08 5.0850990236961266e-05 7.5837786491095752e-08  -3.9335691994544737e-05 1.6503742223944463e-05 3.9335691994544716e-05  -5.2479314501452184e-06 5.1384618955635966e-05 5.2479314501452167e-06  -3.2063478403460253e-05 -2.5761633530153146e-05 3.2063478403460186e-05  -6.7853555545248773e-06 5.3526460872066525e-06 6.7853555545248680e-06  -3.2577539148877300e-05 2.9410234383353991e-05 3.2577539148877300e-05  -8.0065806853088679e-06 -3.3835183037385796e-05 8.0065806853088713e-06  -1.3395952993314003e-05 -5.0377184228396904e-05 1.3395952993314010e-05  -2.7387668441234425e-05 5.6733780295743960e-05 2.7387668441234456e-05  -1.0833288377131596e-05 -7.3621844951494736e-05 1.0833288377131593e-05  -3.4877972481940013e-05 4.9519738433956807e-06 3.4877972481940006e-05  -4.0267567066842972e-05 -7.1535094052404908e-06 4.0267567066842951e-05  -1.7478013781950517e-07 -5.0525732311565847e-05 1.7478013781950406e-07  -5.0545766237877240e-06 -6.4410669221607656e-05 5.0545766237877206e-06  5.2437225077705551e-06 -3.1996312830364054e-05 -5.2437225077705568e-06  1.9866182914594115e-05 6.5680965331424722e-05 -1.9866182914594118e-05  -2.9367730445320645e-05 -5.4107262684996695e-05 2.9367730445320669e-05  -3.7201179688728474e-05 -3.6541351357252986e-05 3.7201179688728481e-05  -1.9995738838550346e-06 6.6155424766403169e-05 1.9995738838550329e-06  -1.4248756953258264e-05 5.9668354126612723e-05 1.4248756953258264e-05  -1.6213007853258346e-05 4.4962479418891272e-05 1.6213007853258356e-05  -2.8015179585593692e-05 1.8998061252779792e-05 2.8015179585593712e-05  -3.0720899096812237e-05 -4.1260176805829900e-05 3.0720899096812223e-05  2.2583098033509421e-05 5.0237967205545771e-05 -2.2583098033509425e-05  -1.7214044078813822e-05 -6.0908236696168132e-05 1.7214044078813822e-05  1.3528984687700775e-05 3.8540209516897965e-05 -1.3528984687700775e-05  1.2044282330086447e-05 1.6524781837696231e-05 -1.2044282330086439e-05  -1.0701047281696873e-05 7.1220841286358827e-05 1.0701047281696866e-05  -2.6415903796843610e-05 -1.1697337929092559e-05 2.6415903796843583e-05  8.0651156376207980e-06 -6.2481556518060666e-05 -8.0651156376207980e-06  -3.3669286430699768e-05 -1.8796369821567024e-05 3.3669286430699782e-05  -3.8044143012413242e-05 -3.0257344939839768e-05 3.8044143012413249e-05  -4.1824506329626756e-05 -1.4541937971036450e-05 4.1824506329626770e-05  -3.9211892846031891e-05 -1.8876666779237239e-05 3.9211892846031884e-05  -3.6299872686812408e-05 -2.4549091931601919e-06 3.6299872686812435e-05  9.0308446971371618e-07 3.2742876263895949e-05 -9.0308446971371872e-07  -9.6602265590635331e-06 3.6214402503145996e-05 9.6602265590635348e-06  2.9829460085955898e-06 -7.1761978455843223e-05 -2.9829460085955911e-06  1.1508898004979058e-05 5.6337069081651450e-05 -1.1508898004979080e-05  1.0233774903081084e-05 6.7027209979135906e-05 -1.0233774903081076e-05  2.4565937835293605e-05 -1.9794248898863167e-05 -2.4565937835293592e-05  2.0120762341219032e-05 -2.1593182701963792e-05 -2.0120762341219042e-05  8.9566976877016930e-06 -7.4367966613632114e-05 -8.9566976877017066e-06  -2.5055050558844525e-05 4.8706029582400641e-05 2.5055050558844519e-05  3.9319417874918818e-05 1.9180367479244665e-05 -3.9319417874918805e-05  1.9461684580622613e-05 5.5275206486886341e-05 -1.9461684580622620e-05  2.8949386146538834e-05 5.0096451199275841e-05 -2.8949386146538834e-05  -2.4293049957362834e-05 -4.5307080015274000e-05 2.4293049957362810e-05  -1.4112601634528660e-05 7.1693972600724899e-05 1.4112601634528661e-05  -2.4671739544539636e-05 6.1827093195253926e-05 2.4671739544539609e-05  1.2951394314495017e-05 -4.6616913685814496e-05 -1.2951394314495013e-05  9.4855831686739174e-06 -8.5083340120667882e-06 -9.4855831686739327e-06  -2.5187023678709992e-06 -1.3654260901085353e-05 2.5187023678709976e-06  9.7795447213128669e-06 7.4081468082099351e-05 -9.7795447213128737e-06  -1.0824222833058558e-06 -7.5747302019006502e-05 1.0824222833058533e-06  1.0701181231209483e-05 -4.8169763883463983e-05 -1.0701181231209479e-05  3.3944581779779692e-05 1.9425047751826979e-05 -3.3944581779779712e-05  3.5039104650214658e-07 -2.0425012345817665e-05 -3.5039104650214425e-07  -3.2711012640416755e-05 -4.0629468768926325e-05 3.2711012640416721e-05  -2.0711688483562837e-05 -5.0307707703827166e-05 2.0711688483562816e-05  3.2407379609022584e-05 3.6903729412589420e-05 -3.2407379609022598e-05  -4.2357573525766017e-05 6.0770482776181436e-06 4.2357573525766038e-05  2.0521096914102539e-05 -5.6778306756800663e-05 -2.0521096914102542e-05  -6.6815061573298673e-06 3.6614536339893442e-05 6.6815061573298623e-06  1.4324438209836130e-06 7.3749567195772949e-05 -1.4324438209836159e-06  -1.4780315579425853e-05 4.7792077391962534e-05 1.4780315579425853e-05  3.6853899713905423e-05 -3.6746219771115820e-05 -3.6853899713905430e-05  -1.8945018504400421e-05 1.9833029949942369e-05 1.8945018504400427e-05  2.0236340940864324e-05 -3.5762588830158902e-05 -2.0236340940864331e-05  -3.6576205571695751e-05 1.8167597115161106e-05 3.6576205571695744e-05  -1.9888693594680015e-05 -6.5264128081093302e-05 1.9888693594680012e-05  -8.8810921170903145e-06 -7.1236120808140490e-05 8.8810921170903112e-06  3.4329592590498715e-05 3.3675753546719515e-05 -3.4329592590498722e-05  -2.4511854128124130e-05 3.7566803961276986e-05 2.4511854128124130e-05  2.6762828993739613e-05 3.4114985721660951e-05 -2.6762828993739613e-05  4.9941789812453561e-06 5.6015884255599994e-06 -4.9941789812453510e-06  -1.9984343766941051e-05 6.6708925024947833e-05 1.9984343766941048e-05  2.7189212241489601e-05 -3.4174582598305490e-05 -2.7189212241489598e-05  -6.8639039013949635e-07 -7.5684202235523266e-05 6.8639039013949117e-07  -1.0718513368564903e-05 1.9819127886785056e-05 1.0718513368564908e-05  -1.4145216938293716e-07 1.6844514975423965e-05 1.4145216938293578e-07  -2.0635076050566321e-05 6.1340672712091468e-05 2.0635076050566328e-05  -2.5740530869421611e-05 -5.4040749330023118e-05 2.5740530869421601e-05  5.4118585998311905e-12 1.6158901940262031e-10 -5.4118585991322745e-12  -1.2687861138239063e-05 -2.9841770877312014e-05 1.2687861138239051e-05  1.8475480717809186e-05 1.1637413882914075e-05 -1.8475480717809175e-05  -1.1516399424615019e-05 3.1367383419102349e-05 1.1516399424615020e-05  9.8946305405527834e-06 -2.2235240954841156e-05 -9.8946305405527495e-06  -4.6242208825894044e-07 3.2546471612324559e-06 4.6242208825894134e-07  -1.8919733967734849e-05 5.9228232530720281e-06 1.8919733967734825e-05  7.2522664043105381e-06 3.5480519643326482e-05 -7.2522664043105338e-06  1.8472627627855461e-05 -1.7484394313806925e-05 -1.8472627627855458e-05  -1.8150627416654212e-05 -3.3220739714616423e-06 1.8150627416654212e-05  2.9052288380661803e-06 2.6399221218425925e-05 -2.9052288380661778e-06  3.6760427472319581e-06 -3.0127434986890699e-05 -3.6760427472319504e-06  3.1119032475964974e-06 -4.3510850325054857e-05 -3.1119032475964948e-06  1.7015540437035309e-05 1.1555459159496017e-05 -1.7015540437035339e-05  -1.0146740941506183e-05 -3.3884616960174507e-05 1.0146740941506191e-05  -3.4174521381034724e-06 -4.1346471747063149e-06 3.4174521381034745e-06  -9.3076720585791121e-06 3.3148798418644589e-05 9.3076720585791104e-06  -1.3639947147518795e-05 -1.5832249984927331e-05 1.3639947147518779e-05  1.2521653865630898e-05 1.9871827476037710e-06 -1.2521653865630915e-05  -1.3256477218867187e-05 2.0557238469056039e-05 1.3256477218867203e-05  1.2323933635083991e-06 4.6563410372380244e-05 -1.2323933635083962e-06  2.2086794891195887e-05 2.7546266835851107e-05 -2.2086794891195863e-05  1.5823136869167042e-05 3.8678707737498148e-05 -1.5823136869167029e-05  -2.5212513788629292e-05 1.7503793205901733e-05 2.5212513788629323e-05  2.4098934336541369e-05 -1.4517969128154002e-05 -2.4098934336541332e-05  4.8523283713776969e-06 3.0615393238157719e-05 -4.8523283713776918e-06  -2.6330348871501699e-05 -1.6087707357422667e-05 2.6330348871501685e-05  2.7951440556669193e-05 2.7555284225051341e-06 -2.7951440556669166e-05  1.7652783496783124e-05 -3.8059105457712735e-05 -1.7652783496783101e-05  -1.4265964882517802e-05 1.4047958313666307e-05 1.4265964882517809e-05  1.6272582920727390e-05 -1.4954360481497565e-05 -1.6272582920727410e-05  -4.2594575661589229e-06 -4.7821612311848619e-05 4.2594575661589111e-06  -1.0178898678380356e-05 -5.0350317333838959e-05 1.0178898678380354e-05  2.7261164500733198e-06 -4.4393192413295197e-05 -2.7261164500733215e-06  -2.1187234147074107e-05 3.7900081736774927e-05 2.1187234147074104e-05  1.3260122122107962e-05 -4.3244434282552256e-05 -1.3260122122107955e-05  -3.7577034954450782e-06 5.1023046672770326e-05 3.7577034954450770e-06  -1.8895591868887129e-06 -1.9262105584301281e-05 1.8895591868887072e-06  1.6811274610547781e-05 2.4767738048710907e-05 -1.6811274610547784e-05  1.2020839236128549e-06 2.2880756390736091e-05 -1.2020839236128577e-06  1.1457358927498136e-05 1.2320769676293380e-05 -1.1457358927498136e-05  </DataArray> 
</PointData> 
</Piece>
</UnstructuredGrid>
</VTKFile>