<?xml version="1.0"?>
<VTKFile type="UnstructuredGrid"  version="0.1"  >
<UnstructuredGrid>
<Piece  NumberOfPoints="201" NumberOfCells="657">
<Points>
<DataArray  type="Float64"  NumberOfComponents="3"  format="ascii">-0.06744903835511169 0.3685847776132868 5369.418937913762  -0.4211347441688246 0.5884315599694739 -5369.655304358622  305.8385573986676 0.7205302283329316 -5102.714419396749  579.3514232209913 0.8698969737596746 -4330.89990411899  792.6830367663905 0.09246399373016474 -3138.085798503358  926.8887001383408 -0.08239585992775443 -1645.975133763506  973.0038381109534 -0.1650928380775956 -0.1272959014049763  927.0339797322188 -0.1275726790886641 1645.995096575611  792.8218970181917 0.4207256674250157 3137.710770354016  579.7873787543285 0.4953048729420518 4331.009451252136  306.3117312830979 0.5223784711531455 5102.686915652735  387.8961852046647 -770.5933406844088 -4660.792707425352  385.3084373747458 598.7944445645055 4776.882217831412  929.0083776301923 -709.2791474039501 -789.263949017293  675.0443442064666 -758.2911612669893 3564.29606994779  847.8764452903351 712.1325476269371 2241.892299631613  844.2437140626777 711.7228706348742 -2281.354837381698  432.7518323930398 691.3650991580703 -4598.38293150859  149.6079674920055 -685.5402324290056 5104.299054545322  670.2684942738923 -698.9229777928805 -3640.221522975371  470.3490181457564 -1367.152323999748 -3766.967161526675  695.1737833353463 -1355.265562250835 -2588.171462951395  481.292585200665 -1934.201076602594 -2489.264583186588  674.5665165238378 -1829.462618127474 -1223.721338030385  427.4855026409779 -2316.706465556055 -1040.943412128415  605.2169272268326 -2084.815030675731 262.9183561851812  320.8502320617306 -2476.005467870981 475.1171165168632  463.0317683990232 -2144.810845395892 1802.317360147257  167.8447349885168 -2398.296651355672 1918.591145564683  296.4582931084386 -1941.446667396751 3171.618808768284  -11.45063600325999 -2084.036330272264 3178.98245721298  702.9223208484378 -1691.062614492088 1518.41246035212  670.5242677812804 699.2414089135382 3640.286233051734  681.6468785713013 1363.151200410916 2677.36176961503  821.5163726539979 1317.997833549888 1209.390496936414  110.7458025509836 -1534.509509507845 4256.035340449405  403.402591955072 -1350.369261569615 4008.908263188433  470.2619614368629 1288.198459514608 3883.989178045058  455.3350881546605 1901.393540248108 2717.895600911867  930.7361907944038 -691.654019667729 789.1517631446001  826.9549890518477 -1427.685920776966 91.32022458874722  849.3978351526629 -712.7305892629421 -2220.101851382184  149.2623926475319 686.5192587552151 -5104.63142448385  663.9011571488866 681.1090951090846 -3690.448312820152  676.4371062255902 1355.058449807678 -2731.529569691439  208.0041971602838 -2324.378205963453 -2161.145055860782  -145.7298140449336 -2427.756472225215 1816.30074978161  201.2666671315345 -1391.651743781 -4369.905164929052  815.8972537767423 1333.451969388401 -1250.021546304042  616.804369230415 1919.259794780432 -1507.145276910356  439.0712817965361 1850.653173389095 -2925.001798224022  348.8342650625778 2320.242421461597 -1627.153219472692  153.9454817301337 2162.487555008806 -2848.531640510113  45.40757248337836 2510.542165554281 -1477.44455934381  -158.1597390609705 2228.388930889068 -2629.095299131012  -261.4894590907992 2469.847487809246 -1113.719701406777  -457.6853145623602 2104.628075807123 -2012.434305900318  -50.36204216528699 2618.606641674626 98.47514820317045  -319.3366021880217 -2008.799445312454 2929.272878677919  -441.547026416945 -2241.539691277856 1448.259576060581  -537.0549634546283 2198.931863203381 -543.3782612497312  -703.442111233305 1720.051800509149 -1377.324693740622  -748.16068054696 1720.984560419696 123.1906803618379  -870.2612300369076 1136.518967042271 -859.7036691107107  -881.3289022986784 1079.304960217843 801.9032862799506  -775.7219814443724 1069.011748779111 -2451.750564936492  -719.3171116801378 1586.399149978104 1728.885403071675  -916.327603874574 470.7065409314305 -1560.816321904241  -815.6288671866483 881.1567268577747 2359.318513687439  -784.0588273287506 299.2344937542096 -3147.627076542851  -877.2987350689689 -340.7458123982434 -2243.177085639218  -611.9483770188516 1316.628867005206 3210.009500629664  -137.2957085989214 -1056.342269813313 4826.038457176241  -597.8955678994847 -1728.239323727405 2385.207382225808  -706.3882331553324 -455.6321826469377 -3596.823150761212  -763.6191947132521 -1078.698024231795 -2544.978082748695  -936.3231940441558 299.3984454659834 1346.404559946863  -333.4964909386543 1723.797212432423 -3566.396469529818  -673.481053448961 560.6630714517928 3724.067177540946  214.6869503961158 1737.882704519397 3787.373795313311  -905.0472359498891 -892.5184805766698 -902.8753210025167  -574.4239397493805 180.9121662841479 -4337.083952652382  -449.1692037728685 991.7709035034603 4304.29684561439  -553.8937957931598 -1146.621715044376 -3746.458760439604  -581.646590287491 -1724.632552417019 -2509.168055602243  -491.9068261470097 1941.612136145657 2407.748615783224  -253.6174957139478 -2533.515400780164 344.1209495036495  -472.1268780477203 166.5935766302326 4695.303937830148  -693.6293827266128 -242.0021257978393 3754.000959977207  -337.2551858963195 -1712.110952900582 -3578.968296047362  -339.9507696375978 -2204.153688363718 -2214.617128461914  -289.6687947523765 -1072.690098399879 -4609.913539408539  506.9685200621519 2263.789660890566 -150.7424624605814  -676.2333864693379 -1866.684845447808 946.1196218952232  -807.3546644319348 -1260.073266110565 1654.069992333638  179.7161711011005 2258.857832965806 2483.080661988354  -64.75322549025134 2025.547850576722 3317.465532018492  -22.26617110490037 1512.544468306817 4329.496076630379  -268.5977965000487 635.8229307008822 4988.4212873078  -448.3723160953297 -1396.616875656285 3797.75792328755  235.169137767084 1698.522086479139 -3827.844131001573  -558.6028316723762 -2097.912528902056 -1165.9827427362  -73.9895949860598 1292.191712754345 -4611.807558763576  -163.2593469765629 551.0754140685848 -5165.458061954131  -111.9492468891578 2439.919393399961 1815.967934815026  -209.5580252271384 -390.1181147049831 5180.724813706363  -72.5802163550462 -2124.695283039052 -3045.754967426501  -451.6060652990781 -630.3896373344187 4581.09268536928  -693.4703807440384 -1031.828575072965 3148.61999116992  -856.8837220970231 -499.9554625126717 2360.305283210438  -934.9318565047097 -654.4773008137244 747.14252367088  -968.7212415752642 -85.3617367207254 -462.3575275593867  -381.4391410278001 1102.185515706011 -4380.398923284909  -576.5630724465327 1229.998052057802 -3528.222407056167  -85.67653231724638 -2459.206867149026 -1750.65807890377  -34.0757386783056 1907.337611323279 -3606.71945440307  399.6642218105814 2302.753118010538 1395.718270828965  844.2523537794947 -680.964894593965 2322.803043238458  49.39633926918548 -718.72822637801 -5141.445133106002  159.1425982080742 -2556.870162168004 -823.6894519126821  -303.5365407320434 1648.082899139458 3785.116043214698  932.7510945400146 664.2610228491086 -806.161672791881  634.7072521308904 1903.188141323201 1373.223346957433  745.1958609362034 1731.340415792478 -60.89293322278758  -753.7121846564519 -1563.203352851566 -1348.784960873998  -332.9222774381282 2467.353221087189 415.9477636223592  -554.5692220040304 2129.563366035224 976.8281171188941  -54.22636471840396 -1568.728323998124 -4233.261727720543  -231.4092599684752 -283.1267800181336 -5184.747193634162  -485.9521148746022 -458.2595982088305 -4567.177895286814  232.6092032554885 2548.895088700593 -273.2518274900773  27.39643098860476 -2604.568078242177 594.2672927597702  548.3959134518785 -1643.506262393912 2908.954815480536  934.371976819703 673.141322003486 715.4001856634983  433.2874431607161 -685.1433648535477 4600.687410287936  -831.4724449925412 -1407.042784685722 131.5348036202521  -178.5799724179764 -1698.434279590556 3911.768794115365  483.0690847452246 1248.413684863733 -3891.738868963579  -838.1315248607611 208.8651798773093 2717.579375538917  224.3993361482497 -1926.336454689852 -3367.220134245045  243.7974444914661 1230.099498688838 4516.385386004087  143.5557564823457 2532.792533589941 1123.992348763834  -616.8734065037684 1636.302166649943 -2507.967492196716  821.8602615863795 -1268.76026502956 -1393.468778398831  -15.12155552057679 662.1670744310467 5182.637838746633  746.375375635218 -1227.184695961472 2423.765602254852  -946.8154943169105 630.0446984909759 -121.084240907844  -516.6257021495643 -2250.245180429268 51.51070914985745  -317.2807778635114 -2450.346337400028 -886.0692835178232  879.4327075903682 1166.304900127736 -37.09038565189657  -222.09506240308 1261.962942937936 4510.50848388426  275.9987631567869 1145.280796696119 -4558.580157790178  -334.3178513112812 188.0255878681976 -5035.068447865923  -366.355207166602 2288.770314882642 1698.603314379787  835.1696098585362 -1179.957637795694 1465.843617672584  -68.65802521515467 -2602.821097403438 -537.0541673638296  -632.6155161487682 671.7182691111052 -3861.609984874504  -434.1099489828226 565.4606326399756 -4670.007802661628  -279.7777503330967 2090.928892968619 2805.511763202259  -697.1202256106876 -1866.928969023728 -298.590740747683  0.003742530306211195 0.05924366711941061 -0.1674344642797223  -311.6166662007944 -1038.474963069271 147.586056201699  468.8090912071657 405.2020505079003 -24.48178841501039  -187.9052198811955 1088.467554508291 1173.603763240975  350.6436540742742 -772.6783825961526 1067.293216950286  -228.4594600171033 112.086654584172 -2373.679669686723  -481.7110564239525 206.1314778887694 1.900364722901421  92.81281384113586 1231.074349316432 -1019.444158228738  326.6150297483209 -606.6727003377118 -1596.022672624988  -253.8524601441689 -114.5676066857343 2301.868622036153  244.4905570156572 913.5275078957203 1856.07459236887  -90.42735259944995 -1041.147409703107 -2017.149295733572  81.08239601494462 -1511.172231659511 9.77335416593942  194.285304911504 397.8703000871203 -2644.270
[...]
<PointData  Vectors="Self-Gravity"> 
<DataArray  type="Float64"  Name="Self-Gravity"  NumberOfComponents="3" format="ascii">-2.8230923813308704e-05 -2.8698747841036089e-06 -4.8032711351219062e-05  -2.2761594665151144e-05 -1.5022255868135972e-06 5.2495441663059720e-05  -7.8015806541831698e-05 4.2095475241569434e-07 4.9429043391992247e-05  -1.7227842958347867e-04 3.9067394569479258e-06 4.6201091632802109e-05  -1.6793798226841090e-04 -1.0322782853203700e-06 2.1624136337008328e-05  -2.8119042510710675e-04 7.5311372539456980e-06 1.7238035707892057e-05  -3.0458291682160525e-04 -1.1382810662755577e-06 2.7397801502262220e-06  -3.0053745850823298e-04 -8.2553522859019472e-06 -1.4642533263710001e-05  -1.8765809130654715e-04 1.8454254909776298e-06 -2.4873015827244436e-05  -1.6407018521606904e-04 5.3539128126754078e-07 -4.1779049722636701e-05  -7.6855804403242674e-05 8.8553065189968086e-06 -4.1268833424359811e-05  -1.0438483281278948e-04 3.3026442997951018e-05 4.4767140281902001e-05  -1.1339865629965546e-04 -2.9480426907922847e-05 -5.0404656602503841e-05  -2.5691864811293227e-04 2.6611298556500021e-05 5.7558208111742679e-06  -1.7879286721171936e-04 3.0892502131380768e-05 -3.7699644376262011e-05  -2.2824275901528259e-04 -2.7401508214481618e-05 -2.3879099639566772e-05  -2.3383943155799421e-04 -3.0553943068821247e-05 2.5240453093982640e-05  -1.1949238632467173e-04 -2.8738024565640515e-05 4.8139514278389203e-05  -4.3677956072409578e-05 3.0245805139748108e-05 -4.8483312088614849e-05  -1.8808835853295362e-04 3.3649496678810137e-05 3.7270018079666982e-05  -1.3653050019886854e-04 6.1862842904968234e-05 3.9461336214659006e-05  -2.0671442988065198e-04 6.5468914720409298e-05 2.6209721303186311e-05  -1.4263122226745775e-04 8.8186808941950086e-05 2.3096890119261333e-05  -1.7509122013478114e-04 7.1360615742781925e-05 9.0119983587955575e-06  -1.1348242289174824e-04 9.4295593656500739e-05 1.0836868108178900e-05  -1.6072131097136539e-04 8.5488333298632636e-05 -5.3702970430334278e-06  -1.0378154062307609e-04 1.0630468286442060e-04 -5.8776203119883730e-06  -1.2124839500648481e-04 9.0838967541975534e-05 -1.9069658034395711e-05  -3.9968584800944433e-05 9.5443481494212137e-05 -1.9122632280580761e-05  -5.9780791165290569e-05 6.2267391276866408e-05 -2.1290133648929015e-05  7.2488116957816476e-06 9.3290615208800539e-05 -3.1848848223473174e-05  -2.0772478520808603e-04 8.2046901791606633e-05 -1.7132285704878373e-05  -1.8808966055835002e-04 -3.1499596070220442e-05 -3.3405338698014564e-05  -1.7307836993388123e-04 -5.2992286071320322e-05 -2.3300200967387063e-05  -2.2998752285184715e-04 -4.8957921955531002e-05 -1.5383391648706279e-05  -2.6008476192544885e-05 7.0306408210244687e-05 -4.7471414880833227e-05  -1.0898767543272369e-04 5.7771836871815810e-05 -4.1717346159066208e-05  -1.5019301675870493e-04 -6.0181444224495512e-05 -3.8860981637396265e-05  -1.4385929245966904e-04 -8.3679951570264001e-05 -2.4241057487788537e-05  -2.4731201597033749e-04 1.7506265205067239e-05 -7.4765006100213289e-06  -2.3336028757050151e-04 5.9895610219225988e-05 -2.3461285227370823e-06  -2.4158534087113571e-04 2.5035713977906873e-05 2.3577719553800754e-05  -3.7248522313811857e-05 -3.7913460389702308e-05 5.7457286994221196e-05  -1.7892162857765847e-04 -2.6762046905488542e-05 3.4952867252154436e-05  -1.7552695638948270e-04 -5.1875182590632325e-05 2.4343585604225268e-05  -5.3228161458510088e-05 7.7328402038124094e-05 1.9478542922804156e-05  2.6347357418022073e-05 1.0228408609858888e-04 -1.9700661827642052e-05  -5.7152528494103377e-05 6.0174279452227916e-05 4.3295076247223878e-05  -2.5859093869407375e-04 -5.6087789311804366e-05 1.5323514717672268e-05  -1.7057038913567544e-04 -6.7470065791405475e-05 1.2990590678551265e-05  -1.1744416272706496e-04 -8.0085974385802190e-05 2.8875830992058755e-05  -1.2869249645319880e-04 -1.0005569534533349e-04 1.7681092531037522e-05  -4.0757528153670365e-05 -9.3980654590394806e-05 3.1427019860653177e-05  -1.6832044376184446e-05 -1.1252095609780007e-04 1.7761667768824196e-05  4.6452167214954633e-05 -9.7153680438573470e-05 2.4515122430184458e-05  6.0700534639292844e-05 -8.6994646423105149e-05 8.2128851828430709e-06  1.2799074825558865e-04 -9.4023224783510169e-05 2.2603831167188447e-05  1.1643944794521506e-05 -1.0564011003179799e-04 -1.7914350991790787e-06  8.5532859118537033e-05 8.2148445063479303e-05 -2.6222165028127008e-05  9.4447102496228531e-05 8.5282439376912933e-05 -1.3965633235149581e-05  1.5264931770248339e-04 -9.0199547913829143e-05 5.6755095863380262e-06  2.1696192949296082e-04 -7.2534682936780878e-05 1.4207609343110676e-05  1.5948454337458479e-04 -5.2317743626692227e-05 -3.2782380845108959e-06  2.6629500615638356e-04 -5.1543482578480463e-05 7.6414598219872680e-06  2.7602657018832854e-04 -4.6911581336432442e-05 -1.0140620846509480e-05  1.8650411956707728e-04 -3.1052702085690692e-05 2.0018222444612172e-05  2.1432329075712399e-04 -5.4391355113331110e-05 -1.6033418850773906e-05  2.7074760515136495e-04 -1.6429403697497036e-05 1.6165198945761888e-05  2.2753667459425605e-04 -3.3005480856437330e-05 -2.2911797633453124e-05  2.2743862817640935e-04 -5.9221498483538844e-06 2.6761186833200082e-05  2.6808173653057875e-04 1.1855714543929106e-05 1.9974563714318377e-05  1.7170315606697493e-04 -5.5719860392581616e-05 -2.9433609293055138e-05  5.2657248438274646e-05 4.3731602310915571e-05 -4.3102612191736759e-05  1.6123398853225041e-04 7.4617586793505503e-05 -2.4272140371599585e-05  2.2743382012884746e-04 2.1775736592774775e-05 3.6609102598870102e-05  2.0908048534594431e-04 3.9254186467512784e-05 2.6135196930268411e-05  2.7839788531248971e-04 -5.2845628447475147e-06 -1.1719541323508470e-05  1.0209647731987616e-04 -7.7846181251241432e-05 3.6106769581946051e-05  1.6736353307430992e-04 -2.3467945563935250e-05 -2.7107331387398554e-05  -7.4029919428603990e-05 -7.9667818899852830e-05 -4.1747176813042586e-05  2.6760883865030097e-04 3.3378656166069950e-05 7.1616974397043444e-06  1.8394391476452766e-04 -2.3588875406397302e-06 4.3471490148487218e-05  1.4496493842125908e-04 -3.9747346976580901e-05 -4.4791939932942180e-05  1.3977462774863192e-04 4.4517006917785471e-05 3.7190933060687729e-05  1.5686195558622956e-04 6.9483082105235275e-05 2.9650890947654892e-05  1.5442416934972845e-04 -7.7017523084389319e-05 -2.1541980766957356e-05  7.7775687650131247e-05 1.0113319464897800e-04 -4.9042323848628760e-06  1.3784789792395348e-04 -7.1152349640660002e-06 -4.3026146242403215e-05  2.1970244386850402e-04 7.0256638490375871e-06 -3.6922831573686223e-05  9.2582294051200085e-05 7.7870760674852302e-05 3.7353486976679386e-05  7.9588945201033827e-05 7.6267318530218335e-05 1.8099928859380959e-05  6.7729820617602802e-05 4.2686592474234655e-05 4.4968585853772179e-05  -1.3598255824259103e-04 -8.3391446624197276e-05 -1.9010873182894157e-06  1.9354630202159521e-04 7.3685730551988855e-05 -1.2381599026318444e-05  1.9104408182484456e-04 3.5303230163225810e-05 -1.4061703022826738e-05  -6.2285240714328574e-05 -9.6189490837544312e-05 -2.7705426092440404e-05  9.2858841524687273e-06 -9.0959437781830285e-05 -3.5957996360317969e-05  6.8908390940149549e-07 -6.1779330247645805e-05 -4.5875881174681437e-05  8.5745810691191749e-05 -3.1335681078538440e-05 -5.7368358804441979e-05  1.4328112239123144e-04 6.2051630603783539e-05 -4.2132466979879674e-05  -7.7676208552840639e-05 -7.6741825577337250e-05 4.3391545037878577e-05  1.8550771496151589e-04 9.0743616263364363e-05 1.6487907409458564e-05  2.6037250105674284e-05 -5.3455883435448326e-05 4.1209534626540275e-05  4.9484705869845202e-05 -3.5480542517622879e-05 5.2812628862819852e-05  3.4177937700379036e-05 -1.1333861728025090e-04 -1.9465010582633918e-05  6.3968486853145507e-05 6.6654022140724776e-06 -5.9270271101313361e-05  2.3853772109636196e-05 8.8805564230010466e-05 3.0583889498980577e-05  1.3666461854791766e-04 2.1728839773495181e-05 -4.5143434073701318e-05  1.7318812890809219e-04 3.0151347434676091e-05 -2.9784338312173965e-05  2.1763028087092408e-04 1.8426835341608815e-05 -1.9595266163688567e-05  2.3006721654440633e-04 2.4441600240188691e-05 -8.1020117821266469e-06  2.9521368853326410e-04 7.7497022279876152e-06 6.4284755686357938e-06  1.1417557609773723e-04 -4.7673219099444482e-05 4.6689551984149150e-05  1.6406089717629585e-04 -5.7742834466213377e-05 3.4503387608105549e-05  1.1197669561297699e-05 1.1159754712010373e-04 2.2723046222818774e-05  2.2742116872882564e-05 -8.0898390729984958e-05 3.8581686263809061e-05  -1.2199406994262635e-04 -1.0368323842935126e-04 -1.4590301279376124e-05  -2.6127804470300095e-04 2.8090446881818128e-05 -2.1166604627352905e-05  -1.3611117131106098e-06 2.7690541144664693e-05 4.6257381591207045e-05  -3.7501114513433667e-05 1.1542324611733414e-04 1.0480987946568452e-05  1.0722516114707232e-04 -6.9440198218336831e-05 -4.1352724523601772e-05  -2.9130586602839332e-04 -2.6357285731391816e-05 9.7308836781369277e-06  -1.7357364439834179e-04 -7.1657038133922149e-05 -1.2873508992375659e-05  -2.3145363856674425e-04 -7.8755149730662657e-05 -4.1076822205733438e-06  2.1309626904484716e-04 5.7918906378802487e-05 1.2300582784425430e-05  1.1384028308515168e-04 -1.0665815419909297e-04 -3.6404143522966198e-06  1.4120487685059634e-04 -6.5240196943871712e-05 -8.0191585501936080e-06  2.4581748331081577e-05 7.3332464956742496e-05 4.5854020793085771e-05  5.0227986260032788e-05 1.4029643311124654e-05 5.2106052263722801e-05  1.0794309039516623e-04 2.1850697682104102e-05 3.6397467436641224e-05  -7.0664912971902085e-05 -1.1329107882859003e-04 4.2414966879681293e-06  -2.8511793211386096e-05 1.1718989167454881e-04 -8.1466650693189982e-06  -1.7735053887622869e-04 6.9678769793560025e-05 -3.0307250406372693e-05  -2.9041903792730110e-04 -2.9083811506543986e-05 -6.3688026634659146e-06  -1.2428371535496601e-04 2.8292556733776457e-05 -4.6154405915374025e-05  2.4354758438154445e-04 5.3095309623728280e-05 -9.9944995148773549e-07  3.9464933366560161e-05 6.4019725770786715e-05 -3.7365822584936377e-05  -1.3278642474094126e-04 -5.3459211183459694e-05 3.7615452488386012e-05  2.5697556399034764e-04 -5.7080223768566426e-06 -2.7069420388834479e-05  -5.8736512846396211e-05 6.8220398805712867e-05 2.7504846440747567e-05  -6.8824824032787173e-05 -5.3807785009155670e-05 -4.9586557221993057e-05  -3.7636373504771013e-05 -9.0207067238522135e-05 -1.1074173100403145e-05  1.6429821118327039e-04 -6.6137797438137639e-05 2.7375908934390699e-05  -2.3881613959295838e-04 5.3489073574973556e-05 8.9198916784574270e-06  -1.4276442741178260e-05 -3.1355941021204563e-05 -5.1253402135303584e-05  -2.2423922623053449e-04 4.7675242782818711e-05 -2.7186432295745947e-05  2.9173470968389621e-04 -2.7219264393437399e-05 1.7228697422379722e-06  1.5272794835983052e-04 1.0172109178890766e-04 -1.4170491632732707e-07  8.4522970438069924e-05 9.4280984296900359e-05 1.1397717723283261e-05  -2.6889517675885338e-04 -5.2269504103732245e-05 -2.4759746529478007e-06  5.4826460677093193e-05 -3.2811907811687464e-05 -3.9864857007177907e-05  -5.8950051041966840e-05 -5.2316039298316492e-05 4.5944672562922787e-05  1.2854766218235727e-04 2.8681453172663187e-06 4.6650770276636721e-05  1.1886782204245471e-04 -9.6867689127597007e-05 -1.4910956646090201e-05  -2.6976668272084959e-04 4.8803554085779801e-05 -1.4884489240455496e-05  2.8316976086976109e-05 1.1057228507558002e-04 2.0604578213477636e-06  1.6108448949390722e-04 -2.3218403318696424e-05 3.4039682093144489e-05  1.3441007295166319e-04 -2.3888497704093334e-05 5.3999759020248498e-05  9.5546427910257775e-05 -9.4795785188242986e-05 -2.8494643709578271e-05  2.3040722516983188e-04 8.9493051288128128e-05 1.2123567993117455e-06  8.2256644086754651e-06 1.3488238461292276e-05 -1.7694587118471592e-06  1.2821422298212433e-04 5.1280877700692626e-05 -3.2780498075420110e-06  -2.0952382931268819e-04 -1.7612539594555873e-05 -1.7666042834717007e-06  9.3396494727214353e-05 -5.9890585767856744e-05 -1.9037901236763763e-05  -1.4349104073422216e-04 4.0128335687164954e-05 -1.4493216013205651e-05  7.3483643145744507e-05 -1.0938070894353790e-05 3.2340615867516387e-05  1.8232102838223620e-04 -1.1751032835802934e-05 -1.9305361660822868e-06  -3.8912706553362654e-05 -7.1538407204680706e-05 1.9087136077592203e-05  -1.3217139522208774e-04 3.4374435170055013e-05 1.8644335214382321e-05  1.0094347148573544e-04 1.1492372375262284e-05 -3.0881843946692761e-05  -1.1172463342364206e-04 -5.5933541936433414e-05 -3.1991368707052776e-05  4.0013659246974967e-05 4.7994558226888320e-05 2.2934939655421944e-05  -3.0027309758904926e-05 6.7512967886469973e-05 1.3561406007541983e-06  -8.3723979404406559e-05 -2.7137146401767518e-05 4.1789551571260815e-05  3.7507018844491375e-05 5.2057855213123897e-05 -2.6814580776746107e-05  -5.9567379519042414e-05 1.8051315457978059e-05 -4.0578124633870800e-05  1.1492679256764060e-04 -5.4078191861867539e-05 1.2140759008028987e-05  1.8365747466919907e-04 3.2231287488101152e-05 1.4178885988795861e-05  -1.7787273872043558e-04 -6.1493681724150187e-07 -2.5701730224552053e-05  2.4649566375133893e-05 -4.3584377219513216e-05 -4.4225561267784261e-05  -4.6322581338217990e-05 -9.1551359871276731e-05 -1.5747890254294352e-05  -1.6322183806260013e-04 -5.5408057623806831e-05 2.4453986009255161e-05  -1.4579387993988392e-04 -7.0756751271717726e-05 -1.4142801321135747e-07  1.9036987933315319e-04 -2.9188658630217645e-05 -2.8052947698091120e-05  -2.4421907155130736e-04 2.7380820627588827e-05 3.1424885086069929e-06  3.8959723424774082e-05 -6.3890352970849204e-05 3.9211382193324990e-05  2.2121868203877411e-04 2.9954003085826291e-05 -1.6724101726386115e-05  -2.1034629486597938e-04 -8.1008390635237073e-06 2.3310868137315127e-05  -1.6859266604864068e-04 7.3611551772825832e-05 4.9711046120699276e-06  2.0495788664437055e-04 -2.3970962613140399e-05 2.3882510509221427e-05  -5.3018608907782980e-05 2.5976364687081728e-05 3.9260175276975666e-05  8.1380565148672133e-05 9.0883399355265739e-05 1.6031743351478661e-05  7.2060448831107342e-05 9.4703664022251794e-05 -1.5277713898895074e-05  -8.6298613632287337e-05 8.3298683485020223e-05 -2.1966827485349955e-05  1.7920849890153050e-04 -6.5694527975327613e-05 -4.3265675665255235e-06  -7.4624598663014286e-05 7.9268207332368736e-05 2.8075267054105746e-05  6.0659701792939527e-05 -9.3112088695417505e-05 4.0015825798178522e-06  1.2365894445675823e-04 3.4920798203626572e-05 3.9265560061571018e-05  -2.2019851137827142e-04 -4.7265400268163540e-05 -1.8180071815568163e-05  -2.9740439803427899e-05 -3.6254986103302884e-05 -1.5177101654628443e-05  -7.4790688026515976e-05 -1.7805869903425870e-05 1.9700166679515904e-05  </DataArray> 
</PointData> 
</Piece>
</UnstructuredGrid>
</VTKFile>