<?xml version="1.0"?>
<VTKFile type="UnstructuredGrid"  version="0.1"  >
<UnstructuredGrid>
<Piece  NumberOfPoints="201" NumberOfCells="657">
<Points>
<DataArray  type="Float64"  NumberOfComponents="3"  format="ascii">-0.06709731518366314 0.3695207947027339 5369.25414372245  -0.4214412376098571 0.5884355654346989 -5369.490267698212  305.8374894053222 0.7206204989356262 -5102.551237639908  579.3507708581668 0.8701017404160618 -4330.746207367842  792.6842454470121 0.09225347009335925 -3137.960493360493  926.8921733034034 -0.08268801716797561 -1645.902847250759  973.0085327574931 -0.1653212033709796 -0.1275630696100587  927.037778772013 -0.1274314426730617 1645.922697052162  792.8234899121683 0.4214486909292576 3137.585120501636  579.7873107324348 0.496193236863224 4330.856123071525  306.3113314439514 0.5232981991331569 5102.524043839837  387.8955027841602 -770.603827305824 -4660.636813747014  385.3082358463448 598.8028182689994 4776.723692205235  929.0136278828153 -709.308897450591 -789.2285528742983  675.0460139436725 -758.3082944531361 3564.160788695606  847.8803775655899 712.1573536714812 2241.797587356271  844.2472107465862 711.7468919966415 -2281.258971336407  432.7512946476541 691.374951692935 -4598.227383053715  149.6080257858803 -685.5455938988421 5104.137856439097  670.269402724508 -698.9394600908793 -3640.084199578102  470.3504717246779 -1367.181478768229 -3766.831571208614  695.1780613419243 -1355.307444919551 -2588.06822402619  481.2971246783981 -1934.259045229451 -2489.169528104743  674.5740689939176 -1829.530329934672 -1223.671238675045  427.4918656846298 -2316.789472430832 -1040.902766637914  605.2254310502524 -2084.894647789035 262.9075616661808  320.8557206586681 -2476.095555235192 475.098643342973  463.0378475736241 -2144.881828506269 1802.247272286027  167.8472656673561 -2398.372322062681 1918.519243049869  296.4609663615828 -1941.494023511783 3171.503870975719  -11.45047191277149 -2084.086271415255 3178.868749320417  702.9296566306108 -1691.123560160263 1518.349789334743  670.5256832789662 699.2583564701648 3640.149020906233  681.651408263134 1363.192401501929 2677.255663873292  821.5233362581764 1318.048719380268 1209.338623890997  110.7464048777419 -1534.533985493307 4255.891834471033  403.4040387272917 -1350.394135445729 4008.767269677789  470.2637148730136 1288.225204843044 3883.850338842658  455.3395351450462 1901.447818279903 2717.792748631448  930.7415110538644 -691.6825016780673 789.1163448068875  826.9627886671346 -1427.743999030445 91.31602527963526  849.4013855958062 -712.755382474659 -2220.00832996941  149.2618299821755 686.5256783778381 -5104.470194881212  663.9019787010128 681.1243255429184 -3690.309529318294  676.441050935596 1355.098289301166 -2731.421925903582  208.0067095964693 -2324.449668779978 -2161.064670730313  -145.7318349637882 -2427.834084322479 1816.23263277164  201.2668020235822 -1391.673343117184 -4369.758167302798  815.9039826692825 1333.502866519011 -1249.96832169149  616.8115972995873 1919.32732937187 -1507.084587150985  439.0747420302968 1850.702765180989 -2924.892750795407  348.8392167991766 2320.319617724202 -1627.090704851229  153.9468668906632 2162.544878149137 -2848.428098340355  45.40825403654195 2510.625371449004 -1477.388913983006  -158.1617559943572 2228.451017459815 -2628.998965237543  -261.4938020072389 2469.933104214483 -1113.677002892313  -457.6909464959532 2104.695429891799 -2012.356709774996  -50.36291190074777 2618.700853080108 98.47112480157048  -319.3393763901786 -2008.851904316941 2929.165131513316  -441.5531629703857 -2241.616821265908 1448.203109459252  -537.0629866669454 2199.013722834501 -543.3566111017204  -703.4497080526263 1720.114625463822 -1377.267675661216  -748.1692692185835 1721.052518429642 123.1854411176363  -870.2678321531369 1136.56426136562 -859.6662620635739  -881.3352673335711 1079.348549635261 801.8679061141016  -775.7263406988477 1069.046099589558 -2451.650291682608  -719.3234674675101 1586.455453319034 1728.814006255525  -916.3319297205055 470.7245084896184 -1560.748125730558  -815.6325148207178 881.1864568663971 2359.22030217031  -784.0607078046395 299.2428107206855 -3147.501345610978  -877.3020978837314 -340.7579989705373 -2243.081597389022  -611.9511795866738 1316.663429790131 3209.887007645132  -137.2953953433407 -1056.353507556567 4825.882146156123  -597.9007204821593 -1728.292716140575 2385.113684718053  -706.3895035998713 -455.6432380642723 -3596.685746263735  -763.6234366635633 -1078.732373416459 -2544.87474494446  -936.3272208555788 299.4105834818156 1346.3445941658  -333.4987624736868 1723.835106023872 -3566.268855089175  -673.4816222835326 560.6764799248002 3723.927376883383  214.6883772910561 1737.91848777334 3787.241449785881  -905.0530446346992 -892.5552280861095 -902.8356848460961  -574.4239735156805 180.9152242691589 -4336.930497924975  -449.1692867941543 991.7884467223383 4304.14761894446  -553.895720117775 -1146.646580699756 -3746.321762764293  -581.6517831333621 -1724.685273049895 -2509.070746508908  -491.9115479906129 1941.671366366502 2407.656332460709  -253.621914200859 -2533.607368981187 344.1077253610798  -472.1259142517236 166.5967049453667 4695.14528200598  -693.6295237360862 -242.00657314908 3753.85913605281  -337.2574710459599 -1712.148740885995 -3578.840384182755  -339.9551782868849 -2204.221641030975 -2214.533859576029  -289.6692133363123 -1072.70479667343 -4609.760461252951  506.976467741216 2263.874400825607 -150.7364951157232  -676.2414656722527 -1866.755207521383 946.080629209437  -807.3605719187075 -1260.119347098523 1654.000048265139  179.7185366691955 2258.923278289179 2482.988983759117  -64.75350779084003 2025.596067323188 3317.347514466225  -22.26594877246456 1512.569201708276 4329.351182935705  -268.5969961870704 635.8308220972849 4988.261064777508  -448.3736170184612 -1396.645215410152 3797.621963526873  235.1700408754142 1698.555741364781 -3827.710365354187  -558.6104705804636 -2097.988941257527 -1165.936337050062  -73.98999289823176 1292.209001801184 -4611.656321074249  -163.259362673075 551.0802170840618 -5165.295582707622  -111.9507239783216 2439.99774675607 1815.899473339578  -209.5572249939915 -390.1207984654491 5180.561716573487  -72.58115653859483 -2124.749343934302 -3045.645755949943  -451.6055007666261 -630.3976261189231 4580.936996315132  -693.47271462994 -1031.855705719611 3148.497728489288  -856.8865305544816 -499.9719528610169 2360.205748379283  -934.9370464959088 -654.5046169593667 747.1092291666308  -968.7256342579 -85.36569394927082 -462.3366149769466  -381.439887008616 1102.202895213933 -4380.249198170407  -576.5655920971827 1230.026380359784 -3528.090946014273  -85.67800712449016 -2459.286637998271 -1750.592781362628  -34.07623288400766 1907.378270442968 -3606.593353731221  399.6702327104361 2302.832455238294 1395.663847037279  844.2561453457533 -680.9877389414936 2322.705192113178  49.39592706483065 -718.7346067459397 -5141.283963185693  159.145240729276 -2556.960870412064 -823.658154267859  -303.5378292909934 1648.117209280521 3784.982453036971  932.7562596281088 664.2880238988422 -806.1257367982477  634.7148488626817 1903.256604369622 1373.167472810966  745.2045697592586 1731.408781610738 -60.89026875927573  -753.7195863511409 -1563.262039592792 -1348.728712844759  -332.9278669299264 2467.442878742913 415.9313142618292  -554.5769142476989 2129.641333441657 976.7887348886596  -54.22686847341082 -1568.754317809949 -4233.118981075732  -231.4090344032812 -283.1293204528939 -5184.583715775715  -485.9520123134893 -458.2663236069102 -4567.021710961645  232.6133595270541 2548.987326991767 -273.2414926861566  27.39696286213221 -2604.660952539543 594.2447184072224  548.4000009153746 -1643.55097209117 2908.844203579334  934.3773008263036 673.1691332636666 715.3679925050765  433.2874759082325 -685.1520465966713 4600.531819268687  -831.480127004284 -1407.100391393295 131.5290117856476  -178.5805332837075 -1698.466188413071 3911.633794405582  483.0702525590524 1248.438547080861 -3891.599325567264  -838.1334487586472 208.8723228828181 2717.466953843264  224.4007563163212 -1926.381560429265 -3367.100147993272  243.7979658791606 1230.118182550334 4516.234804422982  143.5582881890103 2532.879993870375 1123.949486160363  -616.8785895168934 1636.351882598724 -2507.869419613861  821.8664439964272 -1268.808683650082 -1393.409578188552  -15.12126216709347 662.1739881261635 5182.476012942989  746.3799999244759 -1227.223704715294 2423.667199838093  -946.8209482551152 630.0712091683816 -121.0788149685078  -516.6336129863301 -2250.329911914809 51.50869531558443  -317.2860774092876 -2450.433980752532 -886.0352889929861  879.4398729066442 1166.352794840827 -37.08881105413631  -222.0950032553467 1261.982123519062 4510.358394602243  275.9986435608919 1145.296879378602 -4558.428265322649  -334.3175361531601 188.0276123122428 -5034.906070777422  -366.36022126598 2288.846354899216 1698.537738227317  835.1758230947698 -1180.002155272167 1465.780615427422  -68.65929198592076 -2602.914324860171 -537.0337471961258  -632.6166513432249 671.7322962374277 -3861.467459890619  -434.109956324992 565.4682429554896 -4669.850637247989  -279.7803136041902 2090.986116976309 2805.408639752685  -697.1288851170939 -1867.001941258497 -298.5784523888678  0.003729703974166873 0.05912410563279912 -0.1677633957188545  -311.6189123653982 -1038.520061573308 147.5795307332262  468.811431485791 405.2197554093241 -24.48093463164436  -187.9063826712304 1088.511956981401 1173.551643763355  350.6457601781935 -772.7106991478483 1067.245168998543  -228.4603539322548 112.090209490117 -2373.577834741869  -481.7132689805857 206.1404267538169 1.900162907906735  92.81344944426934 1231.124461707799 -1019.399531892882  326.6163606913529 -606.6972373058127 -1595.952185617427  -253.8529941205194 -114.5712696091954 2301.769297411477  244.4920473219507 913.5623412874253 1855.994236104167  -90.42810141910198 -1041.185783392555 -2017.063380124702  81.08317332096919 -1511.23562671526 9.772806855783582  194.2856838276393 397.8831865521665
[...]
<PointData  Vectors="Centrifugal"> 
<DataArray  type="Float64"  Name="Centrifugal"  NumberOfComponents="3" format="ascii">-1.6034683320942313e-09 8.7727576997016813e-09 0.0000000000000000e+00  -1.0025757173261691e-08 1.4000016316882285e-08 0.0000000000000000e+00  7.3956608714304717e-06 1.7141892226655883e-08 0.0000000000000000e+00  1.4010637106926856e-05 2.0692634376156894e-08 0.0000000000000000e+00  1.9171676156604153e-05 2.1984493995508457e-09 0.0000000000000000e+00  2.2419639402218435e-05 -1.9622238868838312e-09 0.0000000000000000e+00  2.3535759419129640e-05 -3.9277197090759056e-09 0.0000000000000000e+00  2.2423098432435602e-05 -3.0357744635178173e-09 0.0000000000000000e+00  1.9174982971477170e-05 1.0009432530202446e-08 0.0000000000000000e+00  1.4021013750137886e-05 1.1785406978811744e-08 0.0000000000000000e+00  7.4069259156210364e-06 1.2430646819201045e-08 0.0000000000000000e+00  9.3798068927466726e-06 -1.8624449255173732e-05 0.0000000000000000e+00  9.3172540015248411e-06 1.4472163594283892e-05 0.0000000000000000e+00  2.2470396961220280e-05 -1.7133557920183296e-05 0.0000000000000000e+00  1.6325056680794570e-05 -1.8323393853916966e-05 0.0000000000000000e+00  2.0506801117886082e-05 1.7204470100351479e-05 0.0000000000000000e+00  2.0418977439043203e-05 1.7194719430843839e-05 0.0000000000000000e+00  1.0464624743574133e-05 1.6708971919786192e-05 0.0000000000000000e+00  3.6175577738975944e-06 -1.6570392630062091e-05 0.0000000000000000e+00  1.6209706643401857e-05 -1.6888741450120659e-05 0.0000000000000000e+00  1.1373381047889798e-05 -3.3037453453181256e-05 0.0000000000000000e+00  1.6811312759466423e-05 -3.2744413022701784e-05 0.0000000000000000e+00  1.1637237959105137e-05 -4.6733343893785784e-05 0.0000000000000000e+00  1.6311857011880916e-05 -4.4197297215172237e-05 0.0000000000000000e+00  1.0335485316384158e-05 -5.5970183632842047e-05 0.0000000000000000e+00  1.4633919091150240e-05 -5.0365605742973091e-05 0.0000000000000000e+00  7.7568904129574282e-06 -5.9818496456248191e-05 0.0000000000000000e+00  1.1195175778044515e-05 -5.1819301421836858e-05 0.0000000000000000e+00  4.0577438064140611e-06 -5.7945598038462632e-05 0.0000000000000000e+00  7.1676916791909314e-06 -4.6912989170417133e-05 0.0000000000000000e+00  -2.7687464500679403e-07 -5.0359076737575587e-05 0.0000000000000000e+00  1.6998035154895585e-05 -4.0854159538113147e-05 0.0000000000000000e+00  1.6215792834506837e-05 1.6896315769124507e-05 0.0000000000000000e+00  1.6483958964898546e-05 3.2935337003888177e-05 0.0000000000000000e+00  1.9867985465979397e-05 3.1839898567044148e-05 0.0000000000000000e+00  2.6776282538031832e-06 -3.7085357695885317e-05 0.0000000000000000e+00  9.7543658012203981e-06 -3.2633326538503889e-05 0.0000000000000000e+00  1.1371286053085915e-05 3.1129885635373245e-05 0.0000000000000000e+00  1.1009537505240272e-05 4.5941751059861167e-05 0.0000000000000000e+00  2.2512210867120315e-05 -1.6707925746044751e-05 0.0000000000000000e+00  1.9999462508287104e-05 -3.4488621769003328e-05 0.0000000000000000e+00  2.0543742465119584e-05 -1.7218932651578854e-05 0.0000000000000000e+00  3.6093316872826729e-06 1.6593690144379581e-05 0.0000000000000000e+00  1.6055594090575428e-05 1.6458396882526451e-05 0.0000000000000000e+00  1.6357963142770904e-05 3.2740093813377878e-05 0.0000000000000000e+00  5.0287810692328865e-06 -5.6160498330829717e-05 0.0000000000000000e+00  -3.5231347706119181e-06 -5.8657027366913739e-05 0.0000000000000000e+00  4.8665224324157610e-06 -3.3633478968120992e-05 0.0000000000000000e+00  1.9732090786084203e-05 3.2213333097774499e-05 0.0000000000000000e+00  1.4914479202638682e-05 4.6368068009186906e-05 0.0000000000000000e+00  1.0616384875636613e-05 4.4717007979893655e-05 0.0000000000000000e+00  8.4337022245888402e-06 5.6057944625170073e-05 0.0000000000000000e+00  3.7219660905697293e-06 5.2252527764121285e-05 0.0000000000000000e+00  1.0976974619786209e-06 6.0656246252909289e-05 0.0000000000000000e+00  -3.8237273426433145e-06 5.3843648979013080e-05 0.0000000000000000e+00  -6.3216781752963905e-06 5.9671453281768848e-05 0.0000000000000000e+00  -1.1066039708401310e-05 5.0849404425071076e-05 0.0000000000000000e+00  -1.2175078835370080e-06 6.3264437861362954e-05 0.0000000000000000e+00  -7.7208912614813913e-06 -4.8539003861519906e-05 0.0000000000000000e+00  -1.0675534721386932e-05 -5.4155279696063740e-05 0.0000000000000000e+00  -1.2985205610139048e-05 5.3123455325531395e-05 0.0000000000000000e+00  -1.7010520572911229e-05 4.1554167236213141e-05 0.0000000000000000e+00  -1.8092363165422646e-05 4.1574901164501893e-05 0.0000000000000000e+00  -2.1047955880224803e-05 2.7455087854504508e-05 0.0000000000000000e+00  -2.1315980981744436e-05 2.6072757881982842e-05 0.0000000000000000e+00  -1.8760358648556318e-05 2.5827400513743558e-05 0.0000000000000000e+00  -1.7394880888833800e-05 3.8325909969188911e-05 0.0000000000000000e+00  -2.2163827092770006e-05 1.1371073355353947e-05 0.0000000000000000e+00  -1.9726305635232089e-05 2.1288374074424516e-05 0.0000000000000000e+00  -1.8962832178087476e-05 7.2298581365369628e-06 0.0000000000000000e+00  -2.1219203378282248e-05 -8.2319835765609821e-06 0.0000000000000000e+00  -1.4798124045430697e-05 3.1813646052691320e-05 0.0000000000000000e+00  -3.3198088426565988e-06 -2.5531792696293236e-05 0.0000000000000000e+00  -1.4457624035284781e-05 -4.1755830336762857e-05 0.0000000000000000e+00  -1.7083576473218129e-05 -1.1009733784369535e-05 0.0000000000000000e+00  -1.8467566488821331e-05 -2.6061790010515051e-05 0.0000000000000000e+00  -2.2647892876609148e-05 7.2324555429026776e-06 0.0000000000000000e+00  -8.0635269241039680e-06 4.1655341089107920e-05 0.0000000000000000e+00  -1.6287385454607165e-05 1.3547833695275858e-05 0.0000000000000000e+00  5.1908011768433623e-06 4.1997193457531995e-05 0.0000000000000000e+00  -2.1890239640977196e-05 -2.1560220590628575e-05 0.0000000000000000e+00  -1.3891213887926118e-05 4.3719033887042635e-06 0.0000000000000000e+00  -1.0861553752823667e-05 2.3967876056165592e-05 0.0000000000000000e+00  -1.3394032924544736e-05 -2.7708058335936033e-05 0.0000000000000000e+00  -1.4064542969764273e-05 -4.1669177501611612e-05 0.0000000000000000e+00  -1.1893915313497959e-05 4.6911895412846840e-05 0.0000000000000000e+00  -6.1313319141211753e-06 -6.1208094205324654e-05 0.0000000000000000e+00  -1.1417029742014574e-05 4.0261720267786601e-06 0.0000000000000000e+00  -1.6775079120818676e-05 -5.8481041242003285e-06 0.0000000000000000e+00  -8.1544075644590496e-06 -4.1373182635440691e-05 0.0000000000000000e+00  -8.2190013707406220e-06 -5.3255428005399647e-05 0.0000000000000000e+00  -7.0041574718677829e-06 -2.5925824757716935e-05 0.0000000000000000e+00  1.2257473944038398e-05 5.4690307721760325e-05 0.0000000000000000e+00  -1.6352100940291494e-05 -4.5095951043576229e-05 0.0000000000000000e+00  -1.9525453099566296e-05 -3.0441346408120845e-05 0.0000000000000000e+00  4.3449130915798362e-06 5.4579015060616647e-05 0.0000000000000000e+00  -1.5655494973898653e-06 4.8946049661349437e-05 0.0000000000000000e+00  -5.3839473570617938e-07 3.6554725065846558e-05 0.0000000000000000e+00  -6.4949405251443427e-06 1.5367570142832330e-05 0.0000000000000000e+00  -1.0841952572197365e-05 -3.3749748919259092e-05 0.0000000000000000e+00  5.6861078186214916e-06 4.1046205310640545e-05 0.0000000000000000e+00  -1.3506590209712457e-05 -5.0683385111736543e-05 0.0000000000000000e+00  -1.7889259608097822e-06 3.1230917268138707e-05 0.0000000000000000e+00  -3.9475441420879857e-06 1.3320026108116450e-05 0.0000000000000000e+00  -2.7064352937360696e-06 5.8950895249095576e-05 0.0000000000000000e+00  -5.0672696962218743e-06 -9.4294963263982466e-06 0.0000000000000000e+00  -1.7547140565274280e-06 -5.1340548890499966e-05 0.0000000000000000e+00  -1.0920675265933228e-05 -1.5235764679475521e-05 0.0000000000000000e+00  -1.6770590101841656e-05 -2.4931594672763447e-05 0.0000000000000000e+00  -2.0725110630005166e-05 -1.2078643831601290e-05 0.0000000000000000e+00  -2.2613958561294195e-05 -1.5809745138939541e-05 0.0000000000000000e+00  -2.3432200292616824e-05 -2.0619354211319395e-06 0.0000000000000000e+00  -9.2233433765701346e-06 2.6637029940231408e-05 0.0000000000000000e+00  -1.3942332480649965e-05 2.9721821382270629e-05 0.0000000000000000e+00  -2.0712345167580564e-06 -5.9416628894021144e-05 0.0000000000000000e+00  -8.2385777732299071e-07 4.6091475142418028e-05 0.0000000000000000e+00  9.6627014220040464e-06 5.5634393854236134e-05 0.0000000000000000e+00  2.0419070846980032e-05 -1.6451606031067681e-05 0.0000000000000000e+00  1.1944998121190699e-06 -1.7372860571668142e-05 0.0000000000000000e+00  3.8473221284683840e-06 -6.1773192374316001e-05 0.0000000000000000e+00  -7.3392160131620945e-06 3.9826778253044455e-05 0.0000000000000000e+00  2.2561017152465666e-05 1.6046356439666514e-05 0.0000000000000000e+00  1.5347526832214769e-05 4.5979267644290758e-05 0.0000000000000000e+00  1.8020605464121385e-05 4.1825104191616415e-05 0.0000000000000000e+00  -1.8226985301706972e-05 -3.7764262866243366e-05 0.0000000000000000e+00  -8.0487504774197478e-06 5.9609575780989867e-05 0.0000000000000000e+00  -1.3408830707900020e-05 5.1448032622036805e-05 0.0000000000000000e+00  -1.3110797319447961e-06 -3.7912376158241591e-05 0.0000000000000000e+00  -5.5955455281330638e-06 -6.8436786875117939e-06 0.0000000000000000e+00  -1.1751242832608114e-05 -1.1075480718941677e-05 0.0000000000000000e+00  5.6233959459514376e-06 6.1579830242812394e-05 0.0000000000000000e+00  6.6226532208345020e-07 -6.2925477918725629e-05 0.0000000000000000e+00  1.3260502301263441e-05 -3.9711128646263699e-05 0.0000000000000000e+00  2.2600237840110366e-05 1.6260734256030675e-05 0.0000000000000000e+00  1.0477468355057002e-05 -1.6559070498166412e-05 0.0000000000000000e+00  -2.0108854819513244e-05 -3.3989675414279778e-05 0.0000000000000000e+00  -4.3178260028407332e-06 -4.1044983548192843e-05 0.0000000000000000e+00  1.1681132650387423e-05 3.0168644986868757e-05 0.0000000000000000e+00  -2.0271458389824036e-05 5.0460855496916158e-06 0.0000000000000000e+00  5.4255220843470023e-06 -4.6549056842538195e-05 0.0000000000000000e+00  5.8949007288979754e-06 2.9729286501863940e-05 0.0000000000000000e+00  3.4704575578780023e-06 6.1192531892741798e-05 0.0000000000000000e+00  -1.4916647481470811e-05 3.9534936076116866e-05 0.0000000000000000e+00  1.9876477113106758e-05 -3.0650606143447168e-05 0.0000000000000000e+00  -3.6567368941010430e-07 1.6004909651453454e-05 0.0000000000000000e+00  1.8050071692271502e-05 -2.9649096677753375e-05 0.0000000000000000e+00  -2.2901441808960916e-05 1.5219478724821240e-05 0.0000000000000000e+00  -1.2491041073390436e-05 -5.4362772928669729e-05 0.0000000000000000e+00  -7.6705651390225367e-06 -5.9199160911047101e-05 0.0000000000000000e+00  2.1269755198538137e-05 2.8174150138646244e-05 0.0000000000000000e+00  -5.3701730942338301e-06 3.0499388578012507e-05 0.0000000000000000e+00  6.6736815057976588e-06 2.7679664942862735e-05 0.0000000000000000e+00  -8.0840973145054081e-06 4.5442919465848661e-06 0.0000000000000000e+00  -8.8574149424357208e-06 5.5297664253174393e-05 0.0000000000000000e+00  2.0198637204868503e-05 -2.8505333405651586e-05 0.0000000000000000e+00  -1.6597988678826570e-06 -6.2883111414387333e-05 0.0000000000000000e+00  -1.5298592642151331e-05 1.6231995760831522e-05 0.0000000000000000e+00  -1.0497385017131698e-05 1.3666330434709450e-05 0.0000000000000000e+00  -6.7643697675181488e-06 5.0522727643618782e-05 0.0000000000000000e+00  -1.6857266880997995e-05 -4.5100918544486476e-05 0.0000000000000000e+00  9.1820577120071020e-11 1.4061588411502133e-09 0.0000000000000000e+00  -7.5370536974578589e-06 -2.5084222591341950e-05 0.0000000000000000e+00  1.1340021510519707e-05 9.7874868477730041e-06 0.0000000000000000e+00  -4.5447709247683936e-06 2.6292942089977324e-05 0.0000000000000000e+00  8.4812259616125758e-06 -1.8664331031173633e-05 0.0000000000000000e+00  -5.5258636808762169e-06 2.7078714860729656e-06 0.0000000000000000e+00  -1.1652294224420619e-05 4.9790485350983055e-06 0.0000000000000000e+00  2.2447682202584425e-06 2.9737808541944463e-05 0.0000000000000000e+00  7.9000902054452868e-06 -1.4654734959416118e-05 0.0000000000000000e+00  -6.1401970495537917e-06 -2.7677452181449499e-06 0.0000000000000000e+00  5.9133352917807433e-06 2.2068052144913255e-05 0.0000000000000000e+00  -2.1870506481193799e-06 -2.5151490267034127e-05 0.0000000000000000e+00  1.9609607223563599e-06 -3.6503375126289419e-05 0.0000000000000000e+00  4.6991910152607929e-06 9.6120680376838095e-06 0.0000000000000000e+00  -1.8609237014701384e-06 -2.8276865094578291e-05 0.0000000000000000e+00  4.1231979816355940e-06 -3.4247916992760678e-06 0.0000000000000000e+00  -7.9898401324112519e-06 2.7782297100666473e-05 0.0000000000000000e+00  -1.1713443984765131e-05 -1.3264724163021944e-05 0.0000000000000000e+00  1.1921672017564961e-05 1.6642994873676377e-06 0.0000000000000000e+00  -1.5991677078308490e-06 1.7044242461705052e-05 0.0000000000000000e+00  2.4761401968667040e-06 3.8985898055918462e-05 0.0000000000000000e+00  1.0144318274044365e-05 2.3031239479766740e-05 0.0000000000000000e+00  1.0173957068551849e-05 3.2426043733727757e-05 0.0000000000000000e+00  -1.1622015003931384e-05 1.4641942995927583e-05 0.0000000000000000e+00  1.4250288311737791e-05 -1.2208438963239177e-05 0.0000000000000000e+00  -2.8749022219399649e-06 2.5426008348368627e-05 0.0000000000000000e+00  -1.3717687663750761e-05 -1.3489692610791694e-05 0.0000000000000000e+00  1.3406413769880023e-05 2.3058899702787366e-06 0.0000000000000000e+00  9.9981948881073152e-06 -3.1916825523551066e-05 0.0000000000000000e+00  -1.2778043350108493e-05 1.1742793357634474e-05 0.0000000000000000e+00  2.9644296171648319e-06 -1.2372047933353009e-05 0.0000000000000000e+00  -4.6577840294520887e-06 -4.0013977925069392e-05 0.0000000000000000e+00  -4.5199246879928353e-06 -4.2104890369086330e-05 0.0000000000000000e+00  5.3677459326245543e-06 -3.7046974122537555e-05 0.0000000000000000e+00  -1.1667219314588119e-05 3.1755950443826232e-05 0.0000000000000000e+00  4.5207353662859519e-06 -3.6093518837260530e-05 0.0000000000000000e+00  -3.2445462845570379e-06 4.2696058016573478e-05 0.0000000000000000e+00  -7.8002192347020781e-06 -1.5962130808802447e-05 0.0000000000000000e+00  1.3406103263446878e-05 2.0731674846217196e-05 0.0000000000000000e+00  1.6865201338551295e-06 1.9247526479948051e-05 0.0000000000000000e+00  5.0012819350917651e-06 1.0358576317757409e-05 0.0000000000000000e+00  </DataArray> 
</PointData> 
</Piece>
</UnstructuredGrid>
</VTKFile>