<?xml version="1.0"?>
<VTKFile type="UnstructuredGrid"  version="0.1"  >
<UnstructuredGrid>
<Piece  NumberOfPoints="201" NumberOfCells="657">
<Points>
<DataArray  type="Float64"  NumberOfComponents="3"  format="ascii">-0.06744903835511169 0.3685847776132868 5369.418937913762  -0.4211347441688246 0.5884315599694739 -5369.655304358622  305.8385573986676 0.7205302283329316 -5102.714419396749  579.3514232209913 0.8698969737596746 -4330.89990411899  792.6830367663905 0.09246399373016474 -3138.085798503358  926.8887001383408 -0.08239585992775443 -1645.975133763506  973.0038381109534 -0.1650928380775956 -0.1272959014049763  927.0339797322188 -0.1275726790886641 1645.995096575611  792.8218970181917 0.4207256674250157 3137.710770354016  579.7873787543285 0.4953048729420518 4331.009451252136  306.3117312830979 0.5223784711531455 5102.686915652735  387.8961852046647 -770.5933406844088 -4660.792707425352  385.3084373747458 598.7944445645055 4776.882217831412  929.0083776301923 -709.2791474039501 -789.263949017293  675.0443442064666 -758.2911612669893 3564.29606994779  847.8764452903351 712.1325476269371 2241.892299631613  844.2437140626777 711.7228706348742 -2281.354837381698  432.7518323930398 691.3650991580703 -4598.38293150859  149.6079674920055 -685.5402324290056 5104.299054545322  670.2684942738923 -698.9229777928805 -3640.221522975371  470.3490181457564 -1367.152323999748 -3766.967161526675  695.1737833353463 -1355.265562250835 -2588.171462951395  481.292585200665 -1934.201076602594 -2489.264583186588  674.5665165238378 -1829.462618127474 -1223.721338030385  427.4855026409779 -2316.706465556055 -1040.943412128415  605.2169272268326 -2084.815030675731 262.9183561851812  320.8502320617306 -2476.005467870981 475.1171165168632  463.0317683990232 -2144.810845395892 1802.317360147257  167.8447349885168 -2398.296651355672 1918.591145564683  296.4582931084386 -1941.446667396751 3171.618808768284  -11.45063600325999 -2084.036330272264 3178.98245721298  702.9223208484378 -1691.062614492088 1518.41246035212  670.5242677812804 699.2414089135382 3640.286233051734  681.6468785713013 1363.151200410916 2677.36176961503  821.5163726539979 1317.997833549888 1209.390496936414  110.7458025509836 -1534.509509507845 4256.035340449405  403.402591955072 -1350.369261569615 4008.908263188433  470.2619614368629 1288.198459514608 3883.989178045058  455.3350881546605 1901.393540248108 2717.895600911867  930.7361907944038 -691.654019667729 789.1517631446001  826.9549890518477 -1427.685920776966 91.32022458874722  849.3978351526629 -712.7305892629421 -2220.101851382184  149.2623926475319 686.5192587552151 -5104.63142448385  663.9011571488866 681.1090951090846 -3690.448312820152  676.4371062255902 1355.058449807678 -2731.529569691439  208.0041971602838 -2324.378205963453 -2161.145055860782  -145.7298140449336 -2427.756472225215 1816.30074978161  201.2666671315345 -1391.651743781 -4369.905164929052  815.8972537767423 1333.451969388401 -1250.021546304042  616.804369230415 1919.259794780432 -1507.145276910356  439.0712817965361 1850.653173389095 -2925.001798224022  348.8342650625778 2320.242421461597 -1627.153219472692  153.9454817301337 2162.487555008806 -2848.531640510113  45.40757248337836 2510.542165554281 -1477.44455934381  -158.1597390609705 2228.388930889068 -2629.095299131012  -261.4894590907992 2469.847487809246 -1113.719701406777  -457.6853145623602 2104.628075807123 -2012.434305900318  -50.36204216528699 2618.606641674626 98.47514820317045  -319.3366021880217 -2008.799445312454 2929.272878677919  -441.547026416945 -2241.539691277856 1448.259576060581  -537.0549634546283 2198.931863203381 -543.3782612497312  -703.442111233305 1720.051800509149 -1377.324693740622  -748.16068054696 1720.984560419696 123.1906803618379  -870.2612300369076 1136.518967042271 -859.7036691107107  -881.3289022986784 1079.304960217843 801.9032862799506  -775.7219814443724 1069.011748779111 -2451.750564936492  -719.3171116801378 1586.399149978104 1728.885403071675  -916.327603874574 470.7065409314305 -1560.816321904241  -815.6288671866483 881.1567268577747 2359.318513687439  -784.0588273287506 299.2344937542096 -3147.627076542851  -877.2987350689689 -340.7458123982434 -2243.177085639218  -611.9483770188516 1316.628867005206 3210.009500629664  -137.2957085989214 -1056.342269813313 4826.038457176241  -597.8955678994847 -1728.239323727405 2385.207382225808  -706.3882331553324 -455.6321826469377 -3596.823150761212  -763.6191947132521 -1078.698024231795 -2544.978082748695  -936.3231940441558 299.3984454659834 1346.404559946863  -333.4964909386543 1723.797212432423 -3566.396469529818  -673.481053448961 560.6630714517928 3724.067177540946  214.6869503961158 1737.882704519397 3787.373795313311  -905.0472359498891 -892.5184805766698 -902.8753210025167  -574.4239397493805 180.9121662841479 -4337.083952652382  -449.1692037728685 991.7709035034603 4304.29684561439  -553.8937957931598 -1146.621715044376 -3746.458760439604  -581.646590287491 -1724.632552417019 -2509.168055602243  -491.9068261470097 1941.612136145657 2407.748615783224  -253.6174957139478 -2533.515400780164 344.1209495036495  -472.1268780477203 166.5935766302326 4695.303937830148  -693.6293827266128 -242.0021257978393 3754.000959977207  -337.2551858963195 -1712.110952900582 -3578.968296047362  -339.9507696375978 -2204.153688363718 -2214.617128461914  -289.6687947523765 -1072.690098399879 -4609.913539408539  506.9685200621519 2263.789660890566 -150.7424624605814  -676.2333864693379 -1866.684845447808 946.1196218952232  -807.3546644319348 -1260.073266110565 1654.069992333638  179.7161711011005 2258.857832965806 2483.080661988354  -64.75322549025134 2025.547850576722 3317.465532018492  -22.26617110490037 1512.544468306817 4329.496076630379  -268.5977965000487 635.8229307008822 4988.4212873078  -448.3723160953297 -1396.616875656285 3797.75792328755  235.169137767084 1698.522086479139 -3827.844131001573  -558.6028316723762 -2097.912528902056 -1165.9827427362  -73.9895949860598 1292.191712754345 -4611.807558763576  -163.2593469765629 551.0754140685848 -5165.458061954131  -111.9492468891578 2439.919393399961 1815.967934815026  -209.5580252271384 -390.1181147049831 5180.724813706363  -72.5802163550462 -2124.695283039052 -3045.754967426501  -451.6060652990781 -630.3896373344187 4581.09268536928  -693.4703807440384 -1031.828575072965 3148.61999116992  -856.8837220970231 -499.9554625126717 2360.305283210438  -934.9318565047097 -654.4773008137244 747.14252367088  -968.7212415752642 -85.3617367207254 -462.3575275593867  -381.4391410278001 1102.185515706011 -4380.398923284909  -576.5630724465327 1229.998052057802 -3528.222407056167  -85.67653231724638 -2459.206867149026 -1750.65807890377  -34.0757386783056 1907.337611323279 -3606.71945440307  399.6642218105814 2302.753118010538 1395.718270828965  844.2523537794947 -680.964894593965 2322.803043238458  49.39633926918548 -718.72822637801 -5141.445133106002  159.1425982080742 -2556.870162168004 -823.6894519126821  -303.5365407320434 1648.082899139458 3785.116043214698  932.7510945400146 664.2610228491086 -806.161672791881  634.7072521308904 1903.188141323201 1373.223346957433  745.1958609362034 1731.340415792478 -60.89293322278758  -753.7121846564519 -1563.203352851566 -1348.784960873998  -332.9222774381282 2467.353221087189 415.9477636223592  -554.5692220040304 2129.563366035224 976.8281171188941  -54.22636471840396 -1568.728323998124 -4233.261727720543  -231.4092599684752 -283.1267800181336 -5184.747193634162  -485.9521148746022 -458.2595982088305 -4567.177895286814  232.6092032554885 2548.895088700593 -273.2518274900773  27.39643098860476 -2604.568078242177 594.2672927597702  548.3959134518785 -1643.506262393912 2908.954815480536  934.371976819703 673.141322003486 715.4001856634983  433.2874431607161 -685.1433648535477 4600.687410287936  -831.4724449925412 -1407.042784685722 131.5348036202521  -178.5799724179764 -1698.434279590556 3911.768794115365  483.0690847452246 1248.413684863733 -3891.738868963579  -838.1315248607611 208.8651798773093 2717.579375538917  224.3993361482497 -1926.336454689852 -3367.220134245045  243.7974444914661 1230.099498688838 4516.385386004087  143.5557564823457 2532.792533589941 1123.992348763834  -616.8734065037684 1636.302166649943 -2507.967492196716  821.8602615863795 -1268.76026502956 -1393.468778398831  -15.12155552057679 662.1670744310467 5182.637838746633  746.375375635218 -1227.184695961472 2423.765602254852  -946.8154943169105 630.0446984909759 -121.084240907844  -516.6257021495643 -2250.245180429268 51.51070914985745  -317.2807778635114 -2450.346337400028 -886.0692835178232  879.4327075903682 1166.304900127736 -37.09038565189657  -222.09506240308 1261.962942937936 4510.50848388426  275.9987631567869 1145.280796696119 -4558.580157790178  -334.3178513112812 188.0255878681976 -5035.068447865923  -366.355207166602 2288.770314882642 1698.603314379787  835.1696098585362 -1179.957637795694 1465.843617672584  -68.65802521515467 -2602.821097403438 -537.0541673638296  -632.6155161487682 671.7182691111052 -3861.609984874504  -434.1099489828226 565.4606326399756 -4670.007802661628  -279.7777503330967 2090.928892968619 2805.511763202259  -697.1202256106876 -1866.928969023728 -298.590740747683  0.003742530306211195 0.05924366711941061 -0.1674344642797223  -311.6166662007944 -1038.474963069271 147.586056201699  468.8090912071657 405.2020505079003 -24.48178841501039  -187.9052198811955 1088.467554508291 1173.603763240975  350.6436540742742 -772.6783825961526 1067.293216950286  -228.4594600171033 112.086654584172 -2373.679669686723  -481.7110564239525 206.1314778887694 1.900364722901421  92.81281384113586 1231.074349316432 -1019.444158228738  326.6150297483209 -606.6727003377118 -1596.022672624988  -253.8524601441689 -114.5676066857343 2301.868622036153  244.4905570156572 913.5275078957203 1856.07459236887  -90.42735259944995 -1041.147409703107 -2017.149295733572  81.08239601494462 -1511.172231659511 9.77335416593942  194.285304911504 397.8703000871203 -2644.270
[...]
<PointData  Vectors="Coriolis"> 
<DataArray  type="Float64"  Name="Coriolis"  NumberOfComponents="3" format="ascii">4.2055972782734548e-12 4.9133711878849708e-13 0.0000000000000000e+00  5.9219768088167836e-12 4.2686331057031691e-12 0.0000000000000000e+00  7.3313172200575659e-12 3.2998366746398758e-11 0.0000000000000000e+00  8.9834412706813654e-12 8.7779075648202738e-11 0.0000000000000000e+00  8.3721442494131365e-13 1.7026635655277724e-10 0.0000000000000000e+00  -9.6308992384326531e-13 2.5235442562251072e-10 0.0000000000000000e+00  -1.8086450013156896e-12 2.8210006286483577e-10 0.0000000000000000e+00  -1.1806320293272501e-12 2.5075504027548490e-10 0.0000000000000000e+00  4.6970973724142951e-12 1.6870879453853252e-10 0.0000000000000000e+00  5.5095708901336538e-12 8.3142443044715346e-11 0.0000000000000000e+00  5.7727791272701268e-12 2.8010238252321578e-11 0.0000000000000000e+00  -1.7868427042316569e-10 3.7842161791248781e-11 0.0000000000000000e+00  1.4115094480705795e-10 3.7866726816489618e-11 0.0000000000000000e+00  -4.1164468823337774e-10 2.3842579310601448e-10 0.0000000000000000e+00  -2.7728370541516703e-10 1.0720779463965719e-10 0.0000000000000000e+00  3.5834340715921224e-10 1.8640791672373911e-10 0.0000000000000000e+00  3.5382662590558913e-10 1.8685858394702640e-10 0.0000000000000000e+00  1.7656674917582925e-10 4.6072264438039165e-11 0.0000000000000000e+00  -1.1499995030245687e-10 1.0562118424186682e-11 0.0000000000000000e+00  -2.5798810766327651e-10 1.1077044928788932e-10 0.0000000000000000e+00  -4.5966601664669280e-10 3.8270625415753118e-11 0.0000000000000000e+00  -6.1501296136975421e-10 9.4498189425967259e-11 0.0000000000000000e+00  -8.4171289865893320e-10 1.7241607210862720e-11 0.0000000000000000e+00  -9.4512425667606290e-10 6.0534003967039135e-11 0.0000000000000000e+00  -1.1495777489179208e-09 -5.5622898842173617e-12 0.0000000000000000e+00  -1.0956560865592869e-09 2.7692515068435571e-11 0.0000000000000000e+00  -1.2360596960101932e-09 -1.5892924754577730e-11 0.0000000000000000e+00  -1.0081850948134339e-09 1.6459120336050254e-12 0.0000000000000000e+00  -1.0728334222085754e-09 -1.0146478019536047e-11 0.0000000000000000e+00  -7.1856243505980075e-10 -7.9782027669755035e-14 0.0000000000000000e+00  -7.5615851037441987e-10 -7.9437809671665025e-13 0.0000000000000000e+00  -8.6174326856153576e-10 7.6447318498102284e-11 0.0000000000000000e+00  2.6153026049199239e-10 1.0790194889073429e-10 0.0000000000000000e+00  6.0757457720364080e-10 8.6342262394724045e-11 0.0000000000000000e+00  7.1126900928299954e-10 1.4552002654154727e-10 0.0000000000000000e+00  -4.1445391088977083e-10 1.3942220801467863e-12 0.0000000000000000e+00  -4.1403227607107313e-10 2.7428918539944392e-11 0.0000000000000000e+00  4.2314404157277522e-10 3.8340107789665287e-11 0.0000000000000000e+00  7.9732509811969942e-10 1.4373845314031311e-11 0.0000000000000000e+00  -3.9780582788506784e-10 2.3941625110964519e-10 0.0000000000000000e+00  -8.0094907131248190e-10 1.4459429694028752e-10 0.0000000000000000e+00  -3.5824707122882654e-10 1.9076606717804327e-10 0.0000000000000000e+00  1.2539506207959456e-10 1.4318388983173443e-11 0.0000000000000000e+00  2.4804344339028279e-10 1.0649338599584381e-10 0.0000000000000000e+00  5.9577587862672367e-10 8.5760388087201316e-11 0.0000000000000000e+00  -1.0162855073198712e-09 -8.0349088391966984e-12 0.0000000000000000e+00  -1.0958769591260037e-09 7.8641191421741013e-12 0.0000000000000000e+00  -3.5864751267615864e-10 1.0113063685826986e-11 0.0000000000000000e+00  7.1671280262433478e-10 1.4466931887365853e-10 0.0000000000000000e+00  9.5293221765611518e-10 3.9043791013617641e-11 0.0000000000000000e+00  7.4132093571405189e-10 1.6718284049013789e-11 0.0000000000000000e+00  1.0866968470335500e-09 -9.6354967166262786e-12 0.0000000000000000e+00  8.4705270708452362e-10 -2.3314365292903742e-12 0.0000000000000000e+00  1.1603121515894505e-09 -4.2287694023591102e-12 0.0000000000000000e+00  9.0774388953553950e-10 6.0961001890251732e-12 0.0000000000000000e+00  1.1852038076856705e-09 1.5567513182565107e-11 0.0000000000000000e+00  9.6355411913369457e-10 -5.2669645453649344e-12 0.0000000000000000e+00  1.2856994738707577e-09 3.7320204454871356e-12 0.0000000000000000e+00  -7.8462832091555325e-10 -1.3815883135256236e-12 0.0000000000000000e+00  -1.0821414329324464e-09 3.4254270258427559e-12 0.0000000000000000e+00  1.1287383411364302e-09 -9.0726011391434643e-12 0.0000000000000000e+00  8.8586476352971894e-10 -7.4148518212571156e-11 0.0000000000000000e+00  9.3651596651486642e-10 -9.0687221264267524e-11 0.0000000000000000e+00  6.3208062839312945e-10 -1.8331376647563361e-10 0.0000000000000000e+00  6.0586978153185986e-10 -1.9483922561392875e-10 0.0000000000000000e+00  5.0857148089192829e-10 -1.3590616370126435e-10 0.0000000000000000e+00  7.9999660949857534e-10 -8.9068150307967188e-11 0.0000000000000000e+00  2.5781824305774630e-10 -2.3952961513285125e-10 0.0000000000000000e+00  4.3145264240905628e-10 -1.6496993766501318e-10 0.0000000000000000e+00  1.3289877846134009e-10 -1.6118675230721535e-10 0.0000000000000000e+00  -1.7487397839461907e-10 -2.1399869260772981e-10 0.0000000000000000e+00  5.2241406109930158e-10 -6.9243139744555720e-11 0.0000000000000000e+00  -2.1465889381002976e-10 -8.9964175962920025e-12 0.0000000000000000e+00  -7.8317393845522136e-10 -4.8516206174110467e-11 0.0000000000000000e+00  -1.7204406939819373e-10 -1.2577012158662321e-10 0.0000000000000000e+00  -5.0336980397419218e-10 -1.3137220240490121e-10 0.0000000000000000e+00  1.7094849603563921e-10 -2.5593675971362820e-10 0.0000000000000000e+00  5.9315611728152554e-10 -9.1214117456139837e-12 0.0000000000000000e+00  2.0712204083409555e-10 -1.1116852190550385e-10 0.0000000000000000e+00  5.5791178495141656e-10 4.3281651150178414e-12 0.0000000000000000e+00  -5.1028447607491841e-10 -2.1626512439089593e-10 0.0000000000000000e+00  5.6878836740105883e-11 -7.9813318174214172e-11 0.0000000000000000e+00  2.9011192189788611e-10 -4.5614276246956612e-11 0.0000000000000000e+00  -3.9198290007463239e-10 -5.7417941222439860e-11 0.0000000000000000e+00  -7.6840026872821562e-10 -4.2729982871638339e-11 0.0000000000000000e+00  8.5893177933845674e-10 -1.8462587678987012e-11 0.0000000000000000e+00  -1.2594337147959602e-09 1.6178735679037068e-11 0.0000000000000000e+00  4.5001637578022136e-11 -5.7129235105052091e-11 0.0000000000000000e+00  -7.8720698547746274e-11 -1.2596304762385469e-10 0.0000000000000000e+00  -5.8300305261606849e-10 -9.2346051506488868e-12 0.0000000000000000e+00  -9.7071848627873014e-10 7.2019102880674521e-12 0.0000000000000000e+00  -2.4860936620448390e-10 -1.7493465269832894e-11 0.0000000000000000e+00  1.1631397808794142e-09 8.8429919835917893e-13 0.0000000000000000e+00  -9.8038896686732177e-10 -5.8718928694908455e-11 0.0000000000000000e+00  -6.5813478167347817e-10 -1.4260503332613388e-10 0.0000000000000000e+00  9.4368537729093652e-10 -6.2008315154822713e-12 0.0000000000000000e+00  7.2689289452503468e-10 7.9853013670458921e-13 0.0000000000000000e+00  4.0344927707607296e-10 -1.5385802449047325e-12 0.0000000000000000e+00  1.3695731541748273e-10 -2.4203325232034606e-11 0.0000000000000000e+00  -4.6136678282769377e-10 -3.6122235101705861e-11 0.0000000000000000e+00  5.3950237604902102e-10 7.2097934736465707e-12 0.0000000000000000e+00  -1.0645737510645051e-09 -2.0018660370954061e-11 0.0000000000000000e+00  3.0020268332204011e-10 -7.9576444526383309e-13 0.0000000000000000e+00  9.7404175843645107e-11 -8.7542819685261740e-12 0.0000000000000000e+00  1.1015996230243485e-09 6.7050646489143145e-12 0.0000000000000000e+00  -6.9445324669779857e-11 -1.8077638027939027e-11 0.0000000000000000e+00  -7.9947164503967357e-10 3.1099831033836229e-12 0.0000000000000000e+00  -1.4854946011109986e-10 -5.1350416552643190e-11 0.0000000000000000e+00  -4.2076953933661346e-10 -1.0776060323329849e-10 0.0000000000000000e+00  -2.4635869779524542e-10 -2.0109188738063257e-10 0.0000000000000000e+00  -3.7983517248164864e-10 -2.4750295510560471e-10 0.0000000000000000e+00  -5.2075625765865479e-11 -2.8185995769520730e-10 0.0000000000000000e+00  3.0042323968594696e-10 -2.7861352712296408e-11 0.0000000000000000e+00  4.4819606612570230e-10 -6.2582947724710105e-11 0.0000000000000000e+00  -1.1178806994747077e-09 6.4769935314897160e-12 0.0000000000000000e+00  6.3194200412041349e-10 5.5912550612360504e-13 0.0000000000000000e+00  1.1063695615590993e-09 -8.8346885094723882e-12 0.0000000000000000e+00  -3.3903633820762067e-10 1.8366133978698141e-10 0.0000000000000000e+00  -1.1396275549422490e-10 5.9513184356413963e-12 0.0000000000000000e+00  -1.2472236386230376e-09 -1.0881849606432858e-11 0.0000000000000000e+00  5.3813491369587920e-10 -1.0959576544736858e-11 0.0000000000000000e+00  3.7793983410729203e-10 2.4188448118342367e-10 0.0000000000000000e+00  9.5944712701588438e-10 4.4032444623542023e-11 0.0000000000000000e+00  9.4136461124510390e-10 8.8637158314864508e-11 0.0000000000000000e+00  -8.2314682033905595e-10 -1.0188186427824195e-10 0.0000000000000000e+00  1.2287627975626630e-09 1.6275087096400141e-11 0.0000000000000000e+00  1.0809879757748174e-09 -1.3807616218688305e-11 0.0000000000000000e+00  -4.2344158808237654e-10 -2.0520405193142754e-13 0.0000000000000000e+00  -4.4074713466705625e-11 -1.6853588359083798e-11 0.0000000000000000e+00  -1.1133898550529359e-10 -5.5361094748427430e-11 0.0000000000000000e+00  1.2623922318983986e-09 -1.6203625815920990e-11 0.0000000000000000e+00  -1.2729129389680260e-09 -3.2776600666757754e-12 0.0000000000000000e+00  -6.7506304718760151e-10 4.0260978670017221e-11 0.0000000000000000e+00  3.8695090696582620e-10 2.4261305981134470e-10 0.0000000000000000e+00  -1.6213961506000393e-10 4.2945692250669962e-11 0.0000000000000000e+00  -7.9664070726127531e-10 -1.4913922447167602e-10 0.0000000000000000e+00  -5.1489216001835552e-10 -4.9365462785013080e-12 0.0000000000000000e+00  4.0482216086172286e-10 4.3975590196872456e-11 0.0000000000000000e+00  1.0256082806302591e-10 -1.9459613154466734e-10 0.0000000000000000e+00  -6.8074124489365573e-10 1.7053848618670820e-12 0.0000000000000000e+00  3.1136095112297982e-10 1.2194193684686087e-11 0.0000000000000000e+00  1.2066428128598612e-09 -1.1155661438647300e-11 0.0000000000000000e+00  7.3078708435313738e-10 -5.3353880070773314e-11 0.0000000000000000e+00  -6.7970257634660851e-10 1.5063544527673652e-10 0.0000000000000000e+00  1.2582562197246356e-10 -2.0563484122051324e-12 0.0000000000000000e+00  -5.7764783295859139e-10 1.1595354852369878e-10 0.0000000000000000e+00  3.6749299513700814e-10 -2.5167246393880145e-10 0.0000000000000000e+00  -1.1647689601682732e-09 -3.0022812065935301e-12 0.0000000000000000e+00  -1.2074171391223370e-09 1.6417513292407825e-11 0.0000000000000000e+00  6.6210159495996062e-10 1.8440956983949011e-10 0.0000000000000000e+00  3.1890992909853049e-10 -1.2099135439350086e-11 0.0000000000000000e+00  2.8141242909586712e-10 1.8657290997722303e-11 0.0000000000000000e+00  4.5700405542687889e-11 -2.9326345447456057e-11 0.0000000000000000e+00  1.0693349996965701e-09 7.0775167391506474e-12 0.0000000000000000e+00  -6.3144682363436663e-10 1.6034421657859990e-10 0.0000000000000000e+00  -1.2764948904273230e-09 5.5668342294663605e-12 0.0000000000000000e+00  2.3043680933663208e-10 -9.0857810860398841e-11 0.0000000000000000e+00  1.3816620086364369e-10 -4.3757344675321604e-11 0.0000000000000000e+00  8.3885174308393007e-10 7.3005863226459199e-13 0.0000000000000000e+00  -1.0064167497433570e-09 -6.2885308113679827e-11 0.0000000000000000e+00  6.0824474396260102e-13 4.2732802319955570e-14 0.0000000000000000e+00  -6.4247710406278727e-10 -7.5060874987280784e-11 0.0000000000000000e+00  2.5372755957984302e-10 1.3872725288120581e-10 0.0000000000000000e+00  6.4146660999618386e-10 -4.3258575743527979e-11 0.0000000000000000e+00  -4.6710844146480786e-10 9.0696928315519597e-11 0.0000000000000000e+00  5.7212412572327117e-11 -5.8853969576007070e-11 0.0000000000000000e+00  1.2829408174555058e-10 -1.4754764797274017e-10 0.0000000000000000e+00  7.2369033094946400e-10 2.0035318766919382e-11 0.0000000000000000e+00  -3.5755514241344090e-10 8.6413150549500654e-11 0.0000000000000000e+00  -6.0138592482638807e-11 -6.9339130596890756e-11 0.0000000000000000e+00  5.1208263780231618e-10 5.5327662074616492e-11 0.0000000000000000e+00  -5.6899790750604518e-10 -1.8843005693577314e-11 0.0000000000000000e+00  -9.0185967945351584e-10 1.4860933823243294e-11 0.0000000000000000e+00  2.0257304308691195e-10 4.8066357398303277e-11 0.0000000000000000e+00  -6.3412091364839476e-10 -1.6859757679493866e-11 0.0000000000000000e+00  -6.5692514274897862e-11 4.0544813012141179e-11 0.0000000000000000e+00  6.7555146338981055e-10 -7.3288891820132490e-11 0.0000000000000000e+00  -3.2108254551108890e-10 -1.2926605773527891e-10 0.0000000000000000e+00  4.0324582701207220e-11 1.3414105405224009e-10 0.0000000000000000e+00  3.3475661651080838e-10 -1.4403673555776155e-11 0.0000000000000000e+00  9.2841032075020637e-10 1.4839312008471313e-11 0.0000000000000000e+00  5.3625350635346196e-10 9.6927004199002179e-11 0.0000000000000000e+00  7.9159567894698628e-10 8.3262254924285090e-11 0.0000000000000000e+00  3.4460952843143936e-10 -1.2425512510775988e-10 0.0000000000000000e+00  -3.1539693138712144e-10 1.6782394001769212e-10 0.0000000000000000e+00  5.1671733896306767e-10 -2.0342965478846989e-11 0.0000000000000000e+00  -3.3150774493984247e-10 -1.5610930944960200e-10 0.0000000000000000e+00  5.4607619989635881e-11 1.5403442326172156e-10 0.0000000000000000e+00  -7.8352863402359880e-10 8.4243800665388616e-11 0.0000000000000000e+00  2.7245805936635918e-10 -1.3895520805485379e-10 0.0000000000000000e+00  -2.3152178720994968e-10 2.7589968702318477e-11 0.0000000000000000e+00  -9.4131690907103347e-10 -2.6385360838968724e-11 0.0000000000000000e+00  -9.7914517339285547e-10 -2.3232685172102622e-11 0.0000000000000000e+00  -8.2898392650718561e-10 3.1499938169328141e-11 0.0000000000000000e+00  7.6784101453813893e-10 -9.6847945541118825e-11 0.0000000000000000e+00  -8.1068050422106047e-10 2.9426877155595674e-11 0.0000000000000000e+00  1.0054078593860967e-09 -1.6154184709564663e-11 0.0000000000000000e+00  -3.0962977402711238e-10 -6.5652645742575193e-11 0.0000000000000000e+00  4.9300063501322319e-10 1.3544107992599404e-10 0.0000000000000000e+00  5.0008963027996536e-10 1.7945768403315682e-11 0.0000000000000000e+00  2.6701290496011077e-10 5.9144475282011637e-11 0.0000000000000000e+00  </DataArray> 
</PointData> 
</Piece>
</UnstructuredGrid>
</VTKFile>