<?xml version="1.0"?>
<VTKFile type="UnstructuredGrid"  version="0.1"  >
<UnstructuredGrid>
<Piece  NumberOfPoints="201" NumberOfCells="657">
<Points>
<DataArray  type="Float64"  NumberOfComponents="3"  format="ascii">-0.06744903835511169 0.3685847776132868 5369.418937913762  -0.4211347441688246 0.5884315599694739 -5369.655304358622  305.8385573986676 0.7205302283329316 -5102.714419396749  579.3514232209913 0.8698969737596746 -4330.89990411899  792.6830367663905 0.09246399373016474 -3138.085798503358  926.8887001383408 -0.08239585992775443 -1645.975133763506  973.0038381109534 -0.1650928380775956 -0.1272959014049763  927.0339797322188 -0.1275726790886641 1645.995096575611  792.8218970181917 0.4207256674250157 3137.710770354016  579.7873787543285 0.4953048729420518 4331.009451252136  306.3117312830979 0.5223784711531455 5102.686915652735  387.8961852046647 -770.5933406844088 -4660.792707425352  385.3084373747458 598.7944445645055 4776.882217831412  929.0083776301923 -709.2791474039501 -789.263949017293  675.0443442064666 -758.2911612669893 3564.29606994779  847.8764452903351 712.1325476269371 2241.892299631613  844.2437140626777 711.7228706348742 -2281.354837381698  432.7518323930398 691.3650991580703 -4598.38293150859  149.6079674920055 -685.5402324290056 5104.299054545322  670.2684942738923 -698.9229777928805 -3640.221522975371  470.3490181457564 -1367.152323999748 -3766.967161526675  695.1737833353463 -1355.265562250835 -2588.171462951395  481.292585200665 -1934.201076602594 -2489.264583186588  674.5665165238378 -1829.462618127474 -1223.721338030385  427.4855026409779 -2316.706465556055 -1040.943412128415  605.2169272268326 -2084.815030675731 262.9183561851812  320.8502320617306 -2476.005467870981 475.1171165168632  463.0317683990232 -2144.810845395892 1802.317360147257  167.8447349885168 -2398.296651355672 1918.591145564683  296.4582931084386 -1941.446667396751 3171.618808768284  -11.45063600325999 -2084.036330272264 3178.98245721298  702.9223208484378 -1691.062614492088 1518.41246035212  670.5242677812804 699.2414089135382 3640.286233051734  681.6468785713013 1363.151200410916 2677.36176961503  821.5163726539979 1317.997833549888 1209.390496936414  110.7458025509836 -1534.509509507845 4256.035340449405  403.402591955072 -1350.369261569615 4008.908263188433  470.2619614368629 1288.198459514608 3883.989178045058  455.3350881546605 1901.393540248108 2717.895600911867  930.7361907944038 -691.654019667729 789.1517631446001  826.9549890518477 -1427.685920776966 91.32022458874722  849.3978351526629 -712.7305892629421 -2220.101851382184  149.2623926475319 686.5192587552151 -5104.63142448385  663.9011571488866 681.1090951090846 -3690.448312820152  676.4371062255902 1355.058449807678 -2731.529569691439  208.0041971602838 -2324.378205963453 -2161.145055860782  -145.7298140449336 -2427.756472225215 1816.30074978161  201.2666671315345 -1391.651743781 -4369.905164929052  815.8972537767423 1333.451969388401 -1250.021546304042  616.804369230415 1919.259794780432 -1507.145276910356  439.0712817965361 1850.653173389095 -2925.001798224022  348.8342650625778 2320.242421461597 -1627.153219472692  153.9454817301337 2162.487555008806 -2848.531640510113  45.40757248337836 2510.542165554281 -1477.44455934381  -158.1597390609705 2228.388930889068 -2629.095299131012  -261.4894590907992 2469.847487809246 -1113.719701406777  -457.6853145623602 2104.628075807123 -2012.434305900318  -50.36204216528699 2618.606641674626 98.47514820317045  -319.3366021880217 -2008.799445312454 2929.272878677919  -441.547026416945 -2241.539691277856 1448.259576060581  -537.0549634546283 2198.931863203381 -543.3782612497312  -703.442111233305 1720.051800509149 -1377.324693740622  -748.16068054696 1720.984560419696 123.1906803618379  -870.2612300369076 1136.518967042271 -859.7036691107107  -881.3289022986784 1079.304960217843 801.9032862799506  -775.7219814443724 1069.011748779111 -2451.750564936492  -719.3171116801378 1586.399149978104 1728.885403071675  -916.327603874574 470.7065409314305 -1560.816321904241  -815.6288671866483 881.1567268577747 2359.318513687439  -784.0588273287506 299.2344937542096 -3147.627076542851  -877.2987350689689 -340.7458123982434 -2243.177085639218  -611.9483770188516 1316.628867005206 3210.009500629664  -137.2957085989214 -1056.342269813313 4826.038457176241  -597.8955678994847 -1728.239323727405 2385.207382225808  -706.3882331553324 -455.6321826469377 -3596.823150761212  -763.6191947132521 -1078.698024231795 -2544.978082748695  -936.3231940441558 299.3984454659834 1346.404559946863  -333.4964909386543 1723.797212432423 -3566.396469529818  -673.481053448961 560.6630714517928 3724.067177540946  214.6869503961158 1737.882704519397 3787.373795313311  -905.0472359498891 -892.5184805766698 -902.8753210025167  -574.4239397493805 180.9121662841479 -4337.083952652382  -449.1692037728685 991.7709035034603 4304.29684561439  -553.8937957931598 -1146.621715044376 -3746.458760439604  -581.646590287491 -1724.632552417019 -2509.168055602243  -491.9068261470097 1941.612136145657 2407.748615783224  -253.6174957139478 -2533.515400780164 344.1209495036495  -472.1268780477203 166.5935766302326 4695.303937830148  -693.6293827266128 -242.0021257978393 3754.000959977207  -337.2551858963195 -1712.110952900582 -3578.968296047362  -339.9507696375978 -2204.153688363718 -2214.617128461914  -289.6687947523765 -1072.690098399879 -4609.913539408539  506.9685200621519 2263.789660890566 -150.7424624605814  -676.2333864693379 -1866.684845447808 946.1196218952232  -807.3546644319348 -1260.073266110565 1654.069992333638  179.7161711011005 2258.857832965806 2483.080661988354  -64.75322549025134 2025.547850576722 3317.465532018492  -22.26617110490037 1512.544468306817 4329.496076630379  -268.5977965000487 635.8229307008822 4988.4212873078  -448.3723160953297 -1396.616875656285 3797.75792328755  235.169137767084 1698.522086479139 -3827.844131001573  -558.6028316723762 -2097.912528902056 -1165.9827427362  -73.9895949860598 1292.191712754345 -4611.807558763576  -163.2593469765629 551.0754140685848 -5165.458061954131  -111.9492468891578 2439.919393399961 1815.967934815026  -209.5580252271384 -390.1181147049831 5180.724813706363  -72.5802163550462 -2124.695283039052 -3045.754967426501  -451.6060652990781 -630.3896373344187 4581.09268536928  -693.4703807440384 -1031.828575072965 3148.61999116992  -856.8837220970231 -499.9554625126717 2360.305283210438  -934.9318565047097 -654.4773008137244 747.14252367088  -968.7212415752642 -85.3617367207254 -462.3575275593867  -381.4391410278001 1102.185515706011 -4380.398923284909  -576.5630724465327 1229.998052057802 -3528.222407056167  -85.67653231724638 -2459.206867149026 -1750.65807890377  -34.0757386783056 1907.337611323279 -3606.71945440307  399.6642218105814 2302.753118010538 1395.718270828965  844.2523537794947 -680.964894593965 2322.803043238458  49.39633926918548 -718.72822637801 -5141.445133106002  159.1425982080742 -2556.870162168004 -823.6894519126821  -303.5365407320434 1648.082899139458 3785.116043214698  932.7510945400146 664.2610228491086 -806.161672791881  634.7072521308904 1903.188141323201 1373.223346957433  745.1958609362034 1731.340415792478 -60.89293322278758  -753.7121846564519 -1563.203352851566 -1348.784960873998  -332.9222774381282 2467.353221087189 415.9477636223592  -554.5692220040304 2129.563366035224 976.8281171188941  -54.22636471840396 -1568.728323998124 -4233.261727720543  -231.4092599684752 -283.1267800181336 -5184.747193634162  -485.9521148746022 -458.2595982088305 -4567.177895286814  232.6092032554885 2548.895088700593 -273.2518274900773  27.39643098860476 -2604.568078242177 594.2672927597702  548.3959134518785 -1643.506262393912 2908.954815480536  934.371976819703 673.141322003486 715.4001856634983  433.2874431607161 -685.1433648535477 4600.687410287936  -831.4724449925412 -1407.042784685722 131.5348036202521  -178.5799724179764 -1698.434279590556 3911.768794115365  483.0690847452246 1248.413684863733 -3891.738868963579  -838.1315248607611 208.8651798773093 2717.579375538917  224.3993361482497 -1926.336454689852 -3367.220134245045  243.7974444914661 1230.099498688838 4516.385386004087  143.5557564823457 2532.792533589941 1123.992348763834  -616.8734065037684 1636.302166649943 -2507.967492196716  821.8602615863795 -1268.76026502956 -1393.468778398831  -15.12155552057679 662.1670744310467 5182.637838746633  746.375375635218 -1227.184695961472 2423.765602254852  -946.8154943169105 630.0446984909759 -121.084240907844  -516.6257021495643 -2250.245180429268 51.51070914985745  -317.2807778635114 -2450.346337400028 -886.0692835178232  879.4327075903682 1166.304900127736 -37.09038565189657  -222.09506240308 1261.962942937936 4510.50848388426  275.9987631567869 1145.280796696119 -4558.580157790178  -334.3178513112812 188.0255878681976 -5035.068447865923  -366.355207166602 2288.770314882642 1698.603314379787  835.1696098585362 -1179.957637795694 1465.843617672584  -68.65802521515467 -2602.821097403438 -537.0541673638296  -632.6155161487682 671.7182691111052 -3861.609984874504  -434.1099489828226 565.4606326399756 -4670.007802661628  -279.7777503330967 2090.928892968619 2805.511763202259  -697.1202256106876 -1866.928969023728 -298.590740747683  0.003742530306211195 0.05924366711941061 -0.1674344642797223  -311.6166662007944 -1038.474963069271 147.586056201699  468.8090912071657 405.2020505079003 -24.48178841501039  -187.9052198811955 1088.467554508291 1173.603763240975  350.6436540742742 -772.6783825961526 1067.293216950286  -228.4594600171033 112.086654584172 -2373.679669686723  -481.7110564239525 206.1314778887694 1.900364722901421  92.81281384113586 1231.074349316432 -1019.444158228738  326.6150297483209 -606.6727003377118 -1596.022672624988  -253.8524601441689 -114.5676066857343 2301.868622036153  244.4905570156572 913.5275078957203 1856.07459236887  -90.42735259944995 -1041.147409703107 -2017.149295733572  81.08239601494462 -1511.172231659511 9.77335416593942  194.285304911504 397.8703000871203 -2644.270
[...]
<PointData  Vectors="Centrifugal"> 
<DataArray  type="Float64"  Name="Centrifugal"  NumberOfComponents="3" format="ascii">-1.6106759088229628e-09 8.7397465888583431e-09 0.0000000000000000e+00  -1.0007670146192957e-08 1.3984958566641868e-08 0.0000000000000000e+00  7.3957693786291346e-06 1.7121220020798827e-08 0.0000000000000000e+00  1.4010872882602575e-05 2.0665064956071847e-08 0.0000000000000000e+00  1.9172073703606839e-05 2.2013473819091928e-09 0.0000000000000000e+00  2.2420187930614506e-05 -1.9528062901946718e-09 0.0000000000000000e+00  2.3536352957312642e-05 -3.9176757688812933e-09 0.0000000000000000e+00  2.2423635121860932e-05 -3.0361674094173804e-09 0.0000000000000000e+00  1.9175367401047735e-05 9.9802988283745052e-09 0.0000000000000000e+00  1.4021223863178549e-05 1.1750266477227043e-08 0.0000000000000000e+00  7.4070058525305391e-06 1.2394091794475962e-08 0.0000000000000000e+00  9.3799181760730274e-06 -1.8623748192537976e-05 0.0000000000000000e+00  9.3173538389763982e-06 1.4471607645041263e-05 0.0000000000000000e+00  2.2470867648699534e-05 -1.7131808279494204e-05 0.0000000000000000e+00  1.6325285084431509e-05 -1.8322285035377417e-05 0.0000000000000000e+00  2.0507173353257468e-05 1.7202973245401654e-05 0.0000000000000000e+00  2.0419361273779121e-05 1.7193252706762498e-05 0.0000000000000000e+00  1.0464753173619542e-05 1.6708291253092682e-05 0.0000000000000000e+00  3.6175828949510082e-06 -1.6569974710068199e-05 0.0000000000000000e+00  1.6209962307143605e-05 -1.6887696903360184e-05 0.0000000000000000e+00  1.1373441747299176e-05 -3.3035597235156381e-05 0.0000000000000000e+00  1.6811446182650928e-05 -3.2741860363328640e-05 0.0000000000000000e+00  1.1637171373864310e-05 -4.6729834316735456e-05 0.0000000000000000e+00  1.6311826215685047e-05 -4.4193293573637299e-05 0.0000000000000000e+00  1.0335317567137285e-05 -5.5965297817574391e-05 0.0000000000000000e+00  1.4633783014651644e-05 -5.0360937220127202e-05 0.0000000000000000e+00  7.7567179243444866e-06 -5.9813222769020398e-05 0.0000000000000000e+00  1.1195032955759829e-05 -5.1815060224366798e-05 0.0000000000000000e+00  4.0576571963742347e-06 -5.7941081364406308e-05 0.0000000000000000e+00  7.1676268333504718e-06 -4.6910044205043051e-05 0.0000000000000000e+00  -2.7688056457378516e-07 -5.0355975021757819e-05 0.0000000000000000e+00  1.6998049503974795e-05 -4.0850528189707253e-05 0.0000000000000000e+00  1.6216029139749081e-05 1.6895251133203137e-05 0.0000000000000000e+00  1.6484065923498079e-05 3.2932819421238046e-05 0.0000000000000000e+00  1.9868181971179604e-05 3.1836887604833489e-05 0.0000000000000000e+00  2.6776172131107877e-06 -3.7083727457496074e-05 0.0000000000000000e+00  9.7543995746610919e-06 -3.2631687824648535e-05 0.0000000000000000e+00  1.1371339781295695e-05 3.1128179161063763e-05 0.0000000000000000e+00  1.1009466033205449e-05 4.5938441811642616e-05 0.0000000000000000e+00  2.2512682360429391e-05 -1.6706241345333057e-05 0.0000000000000000e+00  1.9999636479192145e-05 -3.4485212427930680e-05 0.0000000000000000e+00  2.0544134780695792e-05 -1.7217436350990945e-05 0.0000000000000000e+00  3.6093811424429280e-06 1.6593220635105094e-05 0.0000000000000000e+00  1.6055841128537313e-05 1.6457407287351389e-05 0.0000000000000000e+00  1.6358082708845965e-05 3.2737638508700436e-05 0.0000000000000000e+00  5.0287001381736622e-06 -5.6156225142253374e-05 0.0000000000000000e+00  -3.5230661788707119e-06 -5.8652406061747005e-05 0.0000000000000000e+00  4.8665444460384667e-06 -3.3632058325358451e-05 0.0000000000000000e+00  1.9732290795096414e-05 3.2210308141165976e-05 0.0000000000000000e+00  1.4914402359620533e-05 4.6364048843661705e-05 0.0000000000000000e+00  1.0616343060368912e-05 4.4713952100016703e-05 0.0000000000000000e+00  8.4335583502264110e-06 5.6053356499984813e-05 0.0000000000000000e+00  3.7219267068518271e-06 5.2249019999557959e-05 0.0000000000000000e+00  1.0976703658808580e-06 6.0651328370477815e-05 0.0000000000000000e+00  -3.8236633090211624e-06 5.3839874066809088e-05 0.0000000000000000e+00  -6.3215341834045154e-06 5.9666414916626509e-05 0.0000000000000000e+00  -1.1065916778007984e-05 5.0845362703124003e-05 0.0000000000000000e+00  -1.2174775073716508e-06 6.3258940042362009e-05 0.0000000000000000e+00  -7.7208275747332893e-06 -4.8535770088687882e-05 0.0000000000000000e+00  -1.0675377786907716e-05 -5.4150704721846893e-05 0.0000000000000000e+00  -1.2985034477193556e-05 5.3118649588919556e-05 0.0000000000000000e+00  -1.7010522869274805e-05 4.1550430068752814e-05 0.0000000000000000e+00  -1.8092382967806781e-05 4.1570913357368399e-05 0.0000000000000000e+00  -2.1048255828300932e-05 2.7452410410439961e-05 0.0000000000000000e+00  -2.1316315526965016e-05 2.6070187345461829e-05 0.0000000000000000e+00  -1.8760593970375759e-05 2.5825296468983973e-05 0.0000000000000000e+00  -1.7394950521605408e-05 3.8322545575737714e-05 0.0000000000000000e+00  -2.2164322927666524e-05 1.1369993507005264e-05 0.0000000000000000e+00  -1.9726630952144793e-05 2.1286575087378850e-05 0.0000000000000000e+00  -1.8963190797614779e-05 7.2293241529247922e-06 0.0000000000000000e+00  -2.1219658521466711e-05 -8.2312511904644210e-06 0.0000000000000000e+00  -1.4798229791615271e-05 3.1811502111442875e-05 0.0000000000000000e+00  -3.3198388958930333e-06 -2.5530983004102662e-05 0.0000000000000000e+00  -1.4457621052911342e-05 -4.1752577997290108e-05 0.0000000000000000e+00  -1.7083861068143774e-05 -1.1009035710588745e-05 0.0000000000000000e+00  -1.8467793286891716e-05 -2.6059699167873786e-05 0.0000000000000000e+00  -2.2648437013254239e-05 7.2317341960050438e-06 0.0000000000000000e+00  -8.0634948509520876e-06 4.1652938946986670e-05 0.0000000000000000e+00  -1.6287650313258015e-05 1.3546990882718039e-05 0.0000000000000000e+00  5.1907775430130713e-06 4.1994930792805961e-05 0.0000000000000000e+00  -2.1890641338567027e-05 -2.1558054816994567e-05 0.0000000000000000e+00  -1.3891413176737044e-05 4.3716868615096518e-06 0.0000000000000000e+00  -1.0861666003747010e-05 2.3966725250911712e-05 0.0000000000000000e+00  -1.3394130325499256e-05 -2.7706475407728265e-05 0.0000000000000000e+00  -1.4064524563921605e-05 -4.1665978541898622e-05 0.0000000000000000e+00  -1.1893847396430255e-05 4.6908312241150706e-05 0.0000000000000000e+00  -6.1311845677471274e-06 -6.1202716469658410e-05 0.0000000000000000e+00  -1.1417196192857627e-05 4.0259837987256184e-06 0.0000000000000000e+00  -1.6775391410491740e-05 -5.8477993214932151e-06 0.0000000000000000e+00  -8.1543754453896334e-06 -4.1370808700303302e-05 0.0000000000000000e+00  -8.2188767410461824e-06 -5.3251353877531867e-05 0.0000000000000000e+00  -7.0041912031472789e-06 -2.5924846677791951e-05 0.0000000000000000e+00  1.2257284099638244e-05 5.4685346179141711e-05 0.0000000000000000e+00  -1.6352052894109613e-05 -4.5091794987615498e-05 0.0000000000000000e+00  -1.9525667760269995e-05 -3.0438584444311095e-05 0.0000000000000000e+00  4.3448403767129250e-06 5.4575069133407324e-05 0.0000000000000000e+00  -1.5655406105954017e-06 4.8943063120448046e-05 0.0000000000000000e+00  -5.3840390853122327e-07 3.6553116439356774e-05 0.0000000000000000e+00  -6.4950204689936465e-06 1.5367036342590647e-05 0.0000000000000000e+00  -1.0842011575481202e-05 -3.3747907898825131e-05 0.0000000000000000e+00  5.6861039712477950e-06 4.1044039960438796e-05 0.0000000000000000e+00  -1.3506455805507061e-05 -5.0678871788023246e-05 0.0000000000000000e+00  -1.7889183580541993e-06 3.1229747036132520e-05 0.0000000000000000e+00  -3.9475657327001556e-06 1.3319665806247482e-05 0.0000000000000000e+00  -2.7063827434521252e-06 5.8946241787849753e-05 0.0000000000000000e+00  -5.0673342957966363e-06 -9.4292572616258485e-06 0.0000000000000000e+00  -1.7546835509277069e-06 -5.1337239322050784e-05 0.0000000000000000e+00  -1.0920817566248349e-05 -1.5235199245223028e-05 0.0000000000000000e+00  -1.6770803746350573e-05 -2.4929884860668802e-05 0.0000000000000000e+00  -2.0725546763814351e-05 -1.2077628249139132e-05 0.0000000000000000e+00  -2.2614453461951451e-05 -1.5808133931996934e-05 0.0000000000000000e+00  -2.3432800538137050e-05 -2.0617094259404724e-06 0.0000000000000000e+00  -9.2233951789513058e-06 2.6635856991560088e-05 0.0000000000000000e+00  -1.3942428443498855e-05 2.9720013761217060e-05 0.0000000000000000e+00  -2.0711826493369965e-06 -5.9411900409251767e-05 0.0000000000000000e+00  -8.2384445858052448e-07 4.6088908933326469e-05 0.0000000000000000e+00  9.6625340011995434e-06 5.5629704892683650e-05 0.0000000000000000e+00  2.0419439590674990e-05 -1.6450204766006173e-05 0.0000000000000000e+00  1.1945246569115864e-06 -1.7372420921211117e-05 0.0000000000000000e+00  3.8472309630362386e-06 -6.1767875627331107e-05 0.0000000000000000e+00  -7.3392122351289519e-06 3.9824600744407287e-05 0.0000000000000000e+00  2.2561498561119373e-05 1.6044757585790387e-05 0.0000000000000000e+00  1.5347453636178610e-05 4.5975209869555388e-05 0.0000000000000000e+00  1.8020617221453509e-05 4.1821094371820008e-05 0.0000000000000000e+00  -1.8227061835012872e-05 -3.7760783002797688e-05 0.0000000000000000e+00  -8.0485745865261551e-06 5.9604330792675933e-05 0.0000000000000000e+00  -1.3408679410604959e-05 5.1443440588413411e-05 0.0000000000000000e+00  -1.3110680945941726e-06 -3.7910686949688439e-05 0.0000000000000000e+00  -5.5955932599500233e-06 -6.8435069581263805e-06 0.0000000000000000e+00  -1.1751384108305065e-05 -1.1075039319646949e-05 0.0000000000000000e+00  5.6232548730075870e-06 6.1574438545437205e-05 0.0000000000000000e+00  6.6224424815484015e-07 -6.2920044409754317e-05 0.0000000000000000e+00  1.3260504406018347e-05 -3.9708356838680844e-05 0.0000000000000000e+00  2.2600717252917809e-05 1.6259093307879287e-05 0.0000000000000000e+00  1.0477575242929660e-05 -1.6558454256591337e-05 0.0000000000000000e+00  -2.0109043029658565e-05 -3.3986288279775712e-05 0.0000000000000000e+00  -4.3178247328193586e-06 -4.1042922076643024e-05 0.0000000000000000e+00  1.1681214564863627e-05 3.0167029700159572e-05 0.0000000000000000e+00  -2.0271899624606234e-05 5.0456561498735450e-06 0.0000000000000000e+00  5.4254919402076298e-06 -4.6546261175675682e-05 0.0000000000000000e+00  5.8949187118507725e-06 2.9728054836054308e-05 0.0000000000000000e+00  3.4703684098111132e-06 6.1187395270740410e-05 0.0000000000000000e+00  -1.4916655941489182e-05 3.9531903845521097e-05 0.0000000000000000e+00  1.9876705263924837e-05 -3.0647733847921483e-05 0.0000000000000000e+00  -3.6568587747371293e-07 1.6004427349151381e-05 0.0000000000000000e+00  1.8050250587825133e-05 -2.9646706999785983e-05 0.0000000000000000e+00  -2.2901940777314297e-05 1.5217917939592739e-05 0.0000000000000000e+00  -1.2490857431849314e-05 -5.4357807531407440e-05 0.0000000000000000e+00  -7.6703959058293225e-06 -5.9194018053891521e-05 0.0000000000000000e+00  2.1270044270679450e-05 2.8171334743960824e-05 0.0000000000000000e+00  -5.3702047599321952e-06 3.0498126001119957e-05 0.0000000000000000e+00  6.6737310875549488e-06 2.7678570955694204e-05 0.0000000000000000e+00  -8.0841784825921829e-06 4.5441283646603293e-06 0.0000000000000000e+00  -8.8572759660174736e-06 5.5293147680576536e-05 0.0000000000000000e+00  2.0198888973845568e-05 -2.8502676160250795e-05 0.0000000000000000e+00  -1.6597543057661969e-06 -6.2877660444784258e-05 0.0000000000000000e+00  -1.5298792974081829e-05 1.6231079338391472e-05 0.0000000000000000e+00  -1.0497494551556992e-05 1.3665800181067206e-05 0.0000000000000000e+00  -6.7643058992332238e-06 5.0519243061067437e-05 0.0000000000000000e+00  -1.6857215281210937e-05 -4.5096634347937063e-05 0.0000000000000000e+00  9.2228357205557345e-11 1.4075215900884043e-09 0.0000000000000000e+00  -7.5371875931528147e-06 -2.5081523751293162e-05 0.0000000000000000e+00  1.1340312688099859e-05 9.7864236389282410e-06 0.0000000000000000e+00  -4.5448512627642159e-06 2.6290262517632656e-05 0.0000000000000000e+00  8.4814024413647642e-06 -1.8662380236579228e-05 0.0000000000000000e+00  -5.5259896525259544e-06 2.7076421959202077e-06 0.0000000000000000e+00  -1.1652610595907858e-05 4.9785110372833164e-06 0.0000000000000000e+00  2.2448030754788819e-06 2.9734784955876764e-05 0.0000000000000000e+00  7.9002746424753597e-06 -1.4653246561287751e-05 0.0000000000000000e+00  -6.1403579472733500e-06 -2.7675059867955046e-06 0.0000000000000000e+00  5.9134380096965416e-06 2.2065927818506902e-05 0.0000000000000000e+00  -2.1870798238070657e-06 -2.5149137750885882e-05 0.0000000000000000e+00  1.9609791960006381e-06 -3.6499584296619413e-05 0.0000000000000000e+00  4.6993023302667898e-06 9.6112491060788668e-06 0.0000000000000000e+00  -1.8609577194047457e-06 -2.8274255077001415e-05 0.0000000000000000e+00  4.1232845615961826e-06 -3.4245333792146674e-06 0.0000000000000000e+00  -7.9899637388088708e-06 2.7779471737023525e-05 0.0000000000000000e+00  -1.1713711311093097e-05 -1.3263380912369282e-05 0.0000000000000000e+00  1.1921961811187714e-05 1.6641259445208767e-06 0.0000000000000000e+00  -1.5992052551117279e-06 1.7042884242688765e-05 0.0000000000000000e+00  2.4761489630508518e-06 3.8981998140183270e-05 0.0000000000000000e+00  1.0144503595307551e-05 2.3029011187050116e-05 0.0000000000000000e+00  1.0174074356705547e-05 3.2422707954466794e-05 0.0000000000000000e+00  -1.1622278183652661e-05 1.4640508247294669e-05 0.0000000000000000e+00  1.4250635859149208e-05 -1.2207107006106641e-05 0.0000000000000000e+00  -2.8749334131225193e-06 2.5423907200172047e-05 0.0000000000000000e+00  -1.3718013177589245e-05 -1.3488305159471736e-05 0.0000000000000000e+00  1.3406753144166410e-05 2.3056681454248672e-06 0.0000000000000000e+00  9.9983224737327548e-06 -3.1913526478329280e-05 0.0000000000000000e+00  -1.2778332850423160e-05 1.1741667388565866e-05 0.0000000000000000e+00  2.9644984969119781e-06 -1.2371112797620715e-05 0.0000000000000000e+00  -4.6577989110674252e-06 -4.0010023441863988e-05 0.0000000000000000e+00  -4.5199334482441512e-06 -4.2100775777303765e-05 0.0000000000000000e+00  5.3677741343150684e-06 -3.7043526925145319e-05 0.0000000000000000e+00  -1.1667364357846420e-05 3.1752716192476171e-05 0.0000000000000000e+00  4.5207745610497381e-06 -3.6090141309102720e-05 0.0000000000000000e+00  -3.2445486646215447e-06 4.2691823458087899e-05 0.0000000000000000e+00  -7.8003539864290379e-06 -1.5960872536566188e-05 0.0000000000000000e+00  1.3406361455316878e-05 2.0729608150472687e-05 0.0000000000000000e+00  1.6865530496954095e-06 1.9245433476644966e-05 0.0000000000000000e+00  5.0014072325237832e-06 1.0357467261624479e-05 0.0000000000000000e+00  </DataArray> 
</PointData> 
</Piece>
</UnstructuredGrid>
</VTKFile>