<?xml version="1.0"?>
<VTKFile type="UnstructuredGrid"  version="0.1"  >
<UnstructuredGrid>
<Piece  NumberOfPoints="201" NumberOfCells="657">
<Points>
<DataArray  type="Float64"  NumberOfComponents="3"  format="ascii">-0.06709731518366314 0.3695207947027339 5369.25414372245  -0.4214412376098571 0.5884355654346989 -5369.490267698212  305.8374894053222 0.7206204989356262 -5102.551237639908  579.3507708581668 0.8701017404160618 -4330.746207367842  792.6842454470121 0.09225347009335925 -3137.960493360493  926.8921733034034 -0.08268801716797561 -1645.902847250759  973.0085327574931 -0.1653212033709796 -0.1275630696100587  927.037778772013 -0.1274314426730617 1645.922697052162  792.8234899121683 0.4214486909292576 3137.585120501636  579.7873107324348 0.496193236863224 4330.856123071525  306.3113314439514 0.5232981991331569 5102.524043839837  387.8955027841602 -770.603827305824 -4660.636813747014  385.3082358463448 598.8028182689994 4776.723692205235  929.0136278828153 -709.308897450591 -789.2285528742983  675.0460139436725 -758.3082944531361 3564.160788695606  847.8803775655899 712.1573536714812 2241.797587356271  844.2472107465862 711.7468919966415 -2281.258971336407  432.7512946476541 691.374951692935 -4598.227383053715  149.6080257858803 -685.5455938988421 5104.137856439097  670.269402724508 -698.9394600908793 -3640.084199578102  470.3504717246779 -1367.181478768229 -3766.831571208614  695.1780613419243 -1355.307444919551 -2588.06822402619  481.2971246783981 -1934.259045229451 -2489.169528104743  674.5740689939176 -1829.530329934672 -1223.671238675045  427.4918656846298 -2316.789472430832 -1040.902766637914  605.2254310502524 -2084.894647789035 262.9075616661808  320.8557206586681 -2476.095555235192 475.098643342973  463.0378475736241 -2144.881828506269 1802.247272286027  167.8472656673561 -2398.372322062681 1918.519243049869  296.4609663615828 -1941.494023511783 3171.503870975719  -11.45047191277149 -2084.086271415255 3178.868749320417  702.9296566306108 -1691.123560160263 1518.349789334743  670.5256832789662 699.2583564701648 3640.149020906233  681.651408263134 1363.192401501929 2677.255663873292  821.5233362581764 1318.048719380268 1209.338623890997  110.7464048777419 -1534.533985493307 4255.891834471033  403.4040387272917 -1350.394135445729 4008.767269677789  470.2637148730136 1288.225204843044 3883.850338842658  455.3395351450462 1901.447818279903 2717.792748631448  930.7415110538644 -691.6825016780673 789.1163448068875  826.9627886671346 -1427.743999030445 91.31602527963526  849.4013855958062 -712.755382474659 -2220.00832996941  149.2618299821755 686.5256783778381 -5104.470194881212  663.9019787010128 681.1243255429184 -3690.309529318294  676.441050935596 1355.098289301166 -2731.421925903582  208.0067095964693 -2324.449668779978 -2161.064670730313  -145.7318349637882 -2427.834084322479 1816.23263277164  201.2668020235822 -1391.673343117184 -4369.758167302798  815.9039826692825 1333.502866519011 -1249.96832169149  616.8115972995873 1919.32732937187 -1507.084587150985  439.0747420302968 1850.702765180989 -2924.892750795407  348.8392167991766 2320.319617724202 -1627.090704851229  153.9468668906632 2162.544878149137 -2848.428098340355  45.40825403654195 2510.625371449004 -1477.388913983006  -158.1617559943572 2228.451017459815 -2628.998965237543  -261.4938020072389 2469.933104214483 -1113.677002892313  -457.6909464959532 2104.695429891799 -2012.356709774996  -50.36291190074777 2618.700853080108 98.47112480157048  -319.3393763901786 -2008.851904316941 2929.165131513316  -441.5531629703857 -2241.616821265908 1448.203109459252  -537.0629866669454 2199.013722834501 -543.3566111017204  -703.4497080526263 1720.114625463822 -1377.267675661216  -748.1692692185835 1721.052518429642 123.1854411176363  -870.2678321531369 1136.56426136562 -859.6662620635739  -881.3352673335711 1079.348549635261 801.8679061141016  -775.7263406988477 1069.046099589558 -2451.650291682608  -719.3234674675101 1586.455453319034 1728.814006255525  -916.3319297205055 470.7245084896184 -1560.748125730558  -815.6325148207178 881.1864568663971 2359.22030217031  -784.0607078046395 299.2428107206855 -3147.501345610978  -877.3020978837314 -340.7579989705373 -2243.081597389022  -611.9511795866738 1316.663429790131 3209.887007645132  -137.2953953433407 -1056.353507556567 4825.882146156123  -597.9007204821593 -1728.292716140575 2385.113684718053  -706.3895035998713 -455.6432380642723 -3596.685746263735  -763.6234366635633 -1078.732373416459 -2544.87474494446  -936.3272208555788 299.4105834818156 1346.3445941658  -333.4987624736868 1723.835106023872 -3566.268855089175  -673.4816222835326 560.6764799248002 3723.927376883383  214.6883772910561 1737.91848777334 3787.241449785881  -905.0530446346992 -892.5552280861095 -902.8356848460961  -574.4239735156805 180.9152242691589 -4336.930497924975  -449.1692867941543 991.7884467223383 4304.14761894446  -553.895720117775 -1146.646580699756 -3746.321762764293  -581.6517831333621 -1724.685273049895 -2509.070746508908  -491.9115479906129 1941.671366366502 2407.656332460709  -253.621914200859 -2533.607368981187 344.1077253610798  -472.1259142517236 166.5967049453667 4695.14528200598  -693.6295237360862 -242.00657314908 3753.85913605281  -337.2574710459599 -1712.148740885995 -3578.840384182755  -339.9551782868849 -2204.221641030975 -2214.533859576029  -289.6692133363123 -1072.70479667343 -4609.760461252951  506.976467741216 2263.874400825607 -150.7364951157232  -676.2414656722527 -1866.755207521383 946.080629209437  -807.3605719187075 -1260.119347098523 1654.000048265139  179.7185366691955 2258.923278289179 2482.988983759117  -64.75350779084003 2025.596067323188 3317.347514466225  -22.26594877246456 1512.569201708276 4329.351182935705  -268.5969961870704 635.8308220972849 4988.261064777508  -448.3736170184612 -1396.645215410152 3797.621963526873  235.1700408754142 1698.555741364781 -3827.710365354187  -558.6104705804636 -2097.988941257527 -1165.936337050062  -73.98999289823176 1292.209001801184 -4611.656321074249  -163.259362673075 551.0802170840618 -5165.295582707622  -111.9507239783216 2439.99774675607 1815.899473339578  -209.5572249939915 -390.1207984654491 5180.561716573487  -72.58115653859483 -2124.749343934302 -3045.645755949943  -451.6055007666261 -630.3976261189231 4580.936996315132  -693.47271462994 -1031.855705719611 3148.497728489288  -856.8865305544816 -499.9719528610169 2360.205748379283  -934.9370464959088 -654.5046169593667 747.1092291666308  -968.7256342579 -85.36569394927082 -462.3366149769466  -381.439887008616 1102.202895213933 -4380.249198170407  -576.5655920971827 1230.026380359784 -3528.090946014273  -85.67800712449016 -2459.286637998271 -1750.592781362628  -34.07623288400766 1907.378270442968 -3606.593353731221  399.6702327104361 2302.832455238294 1395.663847037279  844.2561453457533 -680.9877389414936 2322.705192113178  49.39592706483065 -718.7346067459397 -5141.283963185693  159.145240729276 -2556.960870412064 -823.658154267859  -303.5378292909934 1648.117209280521 3784.982453036971  932.7562596281088 664.2880238988422 -806.1257367982477  634.7148488626817 1903.256604369622 1373.167472810966  745.2045697592586 1731.408781610738 -60.89026875927573  -753.7195863511409 -1563.262039592792 -1348.728712844759  -332.9278669299264 2467.442878742913 415.9313142618292  -554.5769142476989 2129.641333441657 976.7887348886596  -54.22686847341082 -1568.754317809949 -4233.118981075732  -231.4090344032812 -283.1293204528939 -5184.583715775715  -485.9520123134893 -458.2663236069102 -4567.021710961645  232.6133595270541 2548.987326991767 -273.2414926861566  27.39696286213221 -2604.660952539543 594.2447184072224  548.4000009153746 -1643.55097209117 2908.844203579334  934.3773008263036 673.1691332636666 715.3679925050765  433.2874759082325 -685.1520465966713 4600.531819268687  -831.480127004284 -1407.100391393295 131.5290117856476  -178.5805332837075 -1698.466188413071 3911.633794405582  483.0702525590524 1248.438547080861 -3891.599325567264  -838.1334487586472 208.8723228828181 2717.466953843264  224.4007563163212 -1926.381560429265 -3367.100147993272  243.7979658791606 1230.118182550334 4516.234804422982  143.5582881890103 2532.879993870375 1123.949486160363  -616.8785895168934 1636.351882598724 -2507.869419613861  821.8664439964272 -1268.808683650082 -1393.409578188552  -15.12126216709347 662.1739881261635 5182.476012942989  746.3799999244759 -1227.223704715294 2423.667199838093  -946.8209482551152 630.0712091683816 -121.0788149685078  -516.6336129863301 -2250.329911914809 51.50869531558443  -317.2860774092876 -2450.433980752532 -886.0352889929861  879.4398729066442 1166.352794840827 -37.08881105413631  -222.0950032553467 1261.982123519062 4510.358394602243  275.9986435608919 1145.296879378602 -4558.428265322649  -334.3175361531601 188.0276123122428 -5034.906070777422  -366.36022126598 2288.846354899216 1698.537738227317  835.1758230947698 -1180.002155272167 1465.780615427422  -68.65929198592076 -2602.914324860171 -537.0337471961258  -632.6166513432249 671.7322962374277 -3861.467459890619  -434.109956324992 565.4682429554896 -4669.850637247989  -279.7803136041902 2090.986116976309 2805.408639752685  -697.1288851170939 -1867.001941258497 -298.5784523888678  0.003729703974166873 0.05912410563279912 -0.1677633957188545  -311.6189123653982 -1038.520061573308 147.5795307332262  468.811431485791 405.2197554093241 -24.48093463164436  -187.9063826712304 1088.511956981401 1173.551643763355  350.6457601781935 -772.7106991478483 1067.245168998543  -228.4603539322548 112.090209490117 -2373.577834741869  -481.7132689805857 206.1404267538169 1.900162907906735  92.81344944426934 1231.124461707799 -1019.399531892882  326.6163606913529 -606.6972373058127 -1595.952185617427  -253.8529941205194 -114.5712696091954 2301.769297411477  244.4920473219507 913.5623412874253 1855.994236104167  -90.42810141910198 -1041.185783392555 -2017.063380124702  81.08317332096919 -1511.23562671526 9.772806855783582  194.2856838276393 397.8831865521665
[...]
<PointData  Vectors="Tidal Force"> 
<DataArray  type="Float64"  Name="Tidal Force"  NumberOfComponents="3" format="ascii">5.1232512813355458e-17 1.6646452504317138e-17 0.0000000000000000e+00  -2.7893256976160190e-16 -9.0630685856837708e-17 0.0000000000000000e+00  3.6348329340790959e-13 1.1810288130646244e-13 0.0000000000000000e+00  6.8839988967020983e-13 2.2367468308884166e-13 0.0000000000000000e+00  9.4156819798811759e-13 3.0593405294184175e-13 0.0000000000000000e+00  1.1010094703647037e-12 3.5773966274111053e-13 0.0000000000000000e+00  1.1557884115650280e-12 3.7553841967989306e-13 0.0000000000000000e+00  1.1011631679031437e-12 3.5778960209862346e-13 0.0000000000000000e+00  9.4184713055787947e-13 3.0602468362769853e-13 0.0000000000000000e+00  6.8876990226275079e-13 2.2379490746803956e-13 0.0000000000000000e+00  3.6396146352750088e-13 1.1825824819650273e-13 0.0000000000000000e+00  1.6344879337887501e-13 5.3107732306273093e-14 0.0000000000000000e+00  6.8850235469583657e-13 2.2370797599385039e-13 0.0000000000000000e+00  8.3013179011764580e-13 2.6972616913911811e-13 0.0000000000000000e+00  5.0934794988895633e-13 1.6549718119208715e-13 0.0000000000000000e+00  1.2816325405388999e-12 4.1642765584799743e-13 0.0000000000000000e+00  1.2771639269212908e-12 4.1497571526845432e-13 0.0000000000000000e+00  7.8055010271716512e-13 2.5361610232660683e-13 0.0000000000000000e+00  -8.6753721697281906e-14 -2.8187992907310351e-14 0.0000000000000000e+00  5.2657345919709106e-13 1.7109408844520533e-13 0.0000000000000000e+00  3.1377067847468366e-14 1.0195027355977339e-14 0.0000000000000000e+00  3.0310293080665827e-13 9.8484112227207786e-14 0.0000000000000000e+00  -1.7421331357110336e-13 -5.6605336938013505e-14 0.0000000000000000e+00  9.5827568966669525e-14 3.1136264606408300e-14 0.0000000000000000e+00  -3.8554173642477091e-13 -1.2527010391248787e-13 0.0000000000000000e+00  -8.5011816261627811e-14 -2.7622013522163559e-14 0.0000000000000000e+00  -5.7358213595405667e-13 -1.8636813342083323e-13 0.0000000000000000e+00  -2.7707681429747371e-13 -9.0027714355014687e-14 0.0000000000000000e+00  -7.2536130141433384e-13 -2.3568417376778967e-13 0.0000000000000000e+00  -3.9658518918676089e-13 -1.2885833923008515e-13 0.0000000000000000e+00  -8.1718134937871439e-13 -2.6551831586719348e-13 0.0000000000000000e+00  1.8286591573513672e-13 5.9416737805409290e-14 0.0000000000000000e+00  1.0659835091046395e-12 3.4635903804565905e-13 0.0000000000000000e+00  1.3350908214089248e-12 4.3379730423333537e-13 0.0000000000000000e+00  1.4837960361004006e-12 4.8211455743003288e-13 0.0000000000000000e+00  -4.6027289511518534e-13 -1.4955172929878511e-13 0.0000000000000000e+00  -4.1691880427223930e-14 -1.3546513126846526e-14 0.0000000000000000e+00  1.0551848339038690e-12 3.4285033577891577e-13 0.0000000000000000e+00  1.2737768885741858e-12 4.1387519979733540e-13 0.0000000000000000e+00  8.3897224482866148e-13 2.7259860699902974e-13 0.0000000000000000e+00  4.3184454300519687e-13 1.4031479776472295e-13 0.0000000000000000e+00  7.3415052361253635e-13 2.3853996517519696e-13 0.0000000000000000e+00  4.4203412055363086e-13 1.4362559220724823e-13 0.0000000000000000e+00  1.0511317728901902e-12 3.4153341642524091e-13 0.0000000000000000e+00  1.3257835815811649e-12 4.3077319869505122e-13 0.0000000000000000e+00  -6.4919563236514549e-13 -2.1093644771137151e-13 0.0000000000000000e+00  -1.1090131273664346e-12 -3.6034020854345152e-13 0.0000000000000000e+00  -2.9770074695556111e-13 -9.6728836290919270e-14 0.0000000000000000e+00  1.4830844734224377e-12 4.8188335670080625e-13 0.0000000000000000e+00  1.4723541082387512e-12 4.7839684970406862e-13 0.0000000000000000e+00  1.2349255663573909e-12 4.0125163998156175e-13 0.0000000000000000e+00  1.3086946923071993e-12 4.2522068198194455e-13 0.0000000000000000e+00  1.0165782892482936e-12 3.3030630901399582e-13 0.0000000000000000e+00  1.0218040055552560e-12 3.3200424716943619e-13 0.0000000000000000e+00  6.7139638791759957e-13 2.1814991046324221e-13 0.0000000000000000e+00  6.4171568549439564e-13 2.0850606564574120e-13 0.0000000000000000e+00  2.6794034951242536e-13 8.7059096991744806e-14 0.0000000000000000e+00  9.4971986002686491e-13 3.0858268849586186e-13 0.0000000000000000e+00  -1.1537163410467990e-12 -3.7486516315638511e-13 0.0000000000000000e+00  -1.3884409447518989e-12 -4.5113181010783098e-13 0.0000000000000000e+00  2.0997360751482547e-13 6.8224560786026873e-14 0.0000000000000000e+00  -1.7232340309843294e-13 -5.5991267801187597e-14 0.0000000000000000e+00  -2.2512135380330757e-13 -7.3146361909803305e-14 0.0000000000000000e+00  -5.9557796145525716e-13 -1.9351501036268671e-13 0.0000000000000000e+00  -6.3079746776372712e-13 -2.0495852165648787e-13 0.0000000000000000e+00  -5.0920563735336357e-13 -1.6545094104624181e-13 0.0000000000000000e+00  -2.4270549070113591e-13 -7.8859794330451691e-14 0.0000000000000000e+00  -9.0703179185049246e-13 -2.9471249434809822e-13 0.0000000000000000e+00  -6.2907833233376799e-13 -2.0439994069467632e-13 0.0000000000000000e+00  -8.1591192156122784e-13 -2.6510585376625324e-13 0.0000000000000000e+00  -1.1734465509813644e-12 -3.8127589697638114e-13 0.0000000000000000e+00  -2.1910437979845019e-13 -7.1191328543462949e-14 0.0000000000000000e+00  -5.7045126017101824e-13 -1.8535085021223607e-13 0.0000000000000000e+00  -1.3763273017222521e-12 -4.4719584889347688e-13 0.0000000000000000e+00  -1.0146769937727759e-12 -3.2968854066550231e-13 0.0000000000000000e+00  -1.3228291733422616e-12 -4.2981325326730215e-13 0.0000000000000000e+00  -9.9684807931372835e-13 -3.2389557519399984e-13 0.0000000000000000e+00  2.6868606719893083e-13 8.7301395355974278e-14 0.0000000000000000e+00  -5.8370909598682989e-13 -1.8965858219918653e-13 0.0000000000000000e+00  9.2507132886221712e-13 3.0057389523545162e-13 0.0000000000000000e+00  -1.4190893724171328e-12 -4.6109008791708034e-13 0.0000000000000000e+00  -6.1245053567512222e-13 -1.9899724205410845e-13 0.0000000000000000e+00  -1.5095944525526371e-13 -4.9049697106887353e-14 0.0000000000000000e+00  -1.0999335875956232e-12 -3.5739008723851985e-13 0.0000000000000000e+00  -1.3556407515485038e-12 -4.4047438129340047e-13 0.0000000000000000e+00  1.6445636613087101e-13 5.3435112538858004e-14 0.0000000000000000e+00  -1.2778128720835932e-12 -4.1518657033350885e-13 0.0000000000000000e+00  -4.9646012666568544e-13 -1.6130967358433446e-13 0.0000000000000000e+00  -9.1715875188326588e-13 -2.9800294312645155e-13 0.0000000000000000e+00  -1.0606667127748979e-12 -3.4463150619687755e-13 0.0000000000000000e+00  -1.2534375809872835e-12 -4.0726655815312153e-13 0.0000000000000000e+00  -7.5768332449813751e-13 -2.4618623569217989e-13 0.0000000000000000e+00  1.4746652638167761e-12 4.7914778967259671e-13 0.0000000000000000e+00  -1.5226587433200428e-12 -4.9474181645747440e-13 0.0000000000000000e+00  -1.4446600888124211e-12 -4.6939851732256844e-13 0.0000000000000000e+00  1.0843019786861261e-12 3.5231106961886933e-13 0.0000000000000000e+00  7.0415104110960473e-13 2.2879254243100228e-13 0.0000000000000000e+00  5.5685756677120800e-13 1.8093399148109061e-13 0.0000000000000000e+00  -7.3752048445537026e-14 -2.3963493182881420e-14 0.0000000000000000e+00  -1.0710042953603484e-12 -3.4799039039108211e-13 0.0000000000000000e+00  9.3421917865011293e-13 3.0354621181038914e-13 0.0000000000000000e+00  -1.4720808681704134e-12 -4.7830806862404570e-13 0.0000000000000000e+00  4.1049197016487505e-13 1.3337692628209034e-13 0.0000000000000000e+00  1.8671404669756212e-14 6.0667071349066904e-15 0.0000000000000000e+00  8.0776025952248072e-13 2.6245721821223303e-13 0.0000000000000000e+00  -3.9933466737441096e-13 -1.2975169884781682e-13 0.0000000000000000e+00  -9.0542650644900723e-13 -2.9419090550296286e-13 0.0000000000000000e+00  -7.7944575744096625e-13 -2.5325727879484713e-13 0.0000000000000000e+00  -1.2214571079889021e-12 -3.9687547257876009e-13 0.0000000000000000e+00  -1.2105730452667759e-12 -3.9333902622450959e-13 0.0000000000000000e+00  -1.3628645358551872e-12 -4.4282153109650923e-13 0.0000000000000000e+00  -1.1836816685411882e-12 -3.8460148826557696e-13 0.0000000000000000e+00  -2.7921719483278723e-14 -9.0723166148528393e-15 0.0000000000000000e+00  -2.1045177763441681e-13 -6.8379927676067164e-14 0.0000000000000000e+00  -1.0498395750670090e-12 -3.4111355590096541e-13 0.0000000000000000e+00  6.9502026882598011e-13 2.2582577467356627e-13 0.0000000000000000e+00  1.3622952857128164e-12 4.4263657051312796e-13 0.0000000000000000e+00  7.4027565514444420e-13 2.4053014105237976e-13 0.0000000000000000e+00  -2.1855220716035066e-13 -7.1011916777583073e-14 0.0000000000000000e+00  -7.9677942427615147e-13 -2.5888932855880775e-13 0.0000000000000000e+00  2.7507874629775290e-13 8.9378502707346329e-14 0.0000000000000000e+00  1.3640371911484706e-12 4.4320254989827458e-13 0.0000000000000000e+00  1.4874164670058779e-12 4.8329090674033804e-13 0.0000000000000000e+00  1.5524077557603313e-12 5.0440785654498121e-13 0.0000000000000000e+00  -1.4977483570899044e-12 -4.8664794132870843e-13 0.0000000000000000e+00  5.5591261153487258e-13 1.8062695691267764e-13 0.0000000000000000e+00  1.6243552812545532e-13 5.2778502467854365e-14 0.0000000000000000e+00  -6.6936416490933647e-13 -2.1748960118057100e-13 0.0000000000000000e+00  -3.8401045354179397e-13 -1.2477255994319220e-13 0.0000000000000000e+00  -7.5385227103998335e-13 -2.4494145096602371e-13 0.0000000000000000e+00  1.2587999173284146e-12 4.0900888684857341e-13 0.0000000000000000e+00  -9.7158475799532030e-13 -3.1568702450353784e-13 0.0000000000000000e+00  1.7549981889286100e-14 5.7023347856455253e-15 0.0000000000000000e+00  1.3693824499853304e-12 4.4493932977622500e-13 0.0000000000000000e+00  2.5031636510463106e-13 8.1332717330259700e-14 0.0000000000000000e+00  -1.5299394526409629e-12 -4.9710746231892120e-13 0.0000000000000000e+00  -8.6701350684183810e-13 -2.8170976533639266e-13 0.0000000000000000e+00  1.0550709838753950e-12 3.4281334366223948e-13 0.0000000000000000e+00  -9.1503544885222319e-13 -2.9731304015043931e-13 0.0000000000000000e+00  -4.7633713413288420e-13 -1.5477131696180547e-13 0.0000000000000000e+00  7.6388815104997718e-13 2.4820230605103611e-13 0.0000000000000000e+00  1.1468853393383515e-12 3.7264563615580968e-13 0.0000000000000000e+00  -1.0170792293735800e-13 -3.3046907432737144e-14 0.0000000000000000e+00  4.8705042181229924e-13 1.5825227514104152e-13 0.0000000000000000e+00  2.3743423438278405e-13 7.7147059328340870e-14 0.0000000000000000e+00  4.1333822087672812e-13 1.3430172919899682e-13 0.0000000000000000e+00  -8.8185385805344006e-13 -2.8653168774514324e-13 0.0000000000000000e+00  -1.4809156303800053e-12 -4.8117865687812342e-13 0.0000000000000000e+00  -1.3213548154735216e-12 -4.2933420535634459e-13 0.0000000000000000e+00  1.4941450036886984e-12 4.8547714083590504e-13 0.0000000000000000e+00  2.2294681825945181e-13 7.2439812481286728e-14 0.0000000000000000e+00  7.6943264743666704e-13 2.5000382213316995e-13 0.0000000000000000e+00  -3.2450104365836973e-13 -1.0543678055651093e-13 0.0000000000000000e+00  4.4739076439333838e-13 1.4536607129686633e-13 0.0000000000000000e+00  5.3710458683094743e-13 1.7451585923775944e-13 0.0000000000000000e+00  -1.0849395388455811e-12 -3.5251822547225625e-13 0.0000000000000000e+00  -4.9231598562922742e-13 -1.5996316053731858e-13 0.0000000000000000e+00  -2.9746166189576544e-13 -9.6651152845899087e-14 0.0000000000000000e+00  4.7399182354631724e-13 1.5400927935827452e-13 0.0000000000000000e+00  -1.5475520520459096e-12 -5.0283014276873869e-13 0.0000000000000000e+00  2.2770005694824646e-17 7.3984233352520614e-18 0.0000000000000000e+00  -7.7042314268439191e-13 -2.5032565354825341e-13 0.0000000000000000e+00  7.1309396084624725e-13 2.3169827319592259e-13 0.0000000000000000e+00  1.9636283661074404e-13 6.3802153237379935e-14 0.0000000000000000e+00  1.1868865468427347e-13 3.8564281635001362e-14 0.0000000000000000e+00  -2.2817253456641408e-13 -7.4137750636727087e-14 0.0000000000000000e+00  -4.9280554075166612e-13 -1.6012222663902648e-13 0.0000000000000000e+00  5.8476220875021549e-13 1.9000075927844194e-13 0.0000000000000000e+00  1.5412447604684433e-13 5.0078077950487377e-14 0.0000000000000000e+00  -3.4571699646452263e-13 -1.1233026149913204e-13 0.0000000000000000e+00  6.4254679070225676e-13 2.0877610809747788e-13 0.0000000000000000e+00  -5.0875023723946705e-13 -1.6530297257953681e-13 0.0000000000000000e+00  -4.8619085409731957e-13 -1.5797298466013577e-13 0.0000000000000000e+00  3.8415845857881036e-13 1.2482064969487134e-13 0.0000000000000000e+00  -5.4260354320624755e-13 -1.7630257847322271e-13 0.0000000000000000e+00  1.4784564697649647e-13 4.8037962715791633e-14 0.0000000000000000e+00  5.0930810237899026e-14 1.6548423395125044e-14 0.0000000000000000e+00  -7.8692570431171610e-13 -2.5568766086047734e-13 0.0000000000000000e+00  6.1203498307119182e-13 1.9886222082824014e-13 0.0000000000000000e+00  1.9343689087895909e-13 6.2851455838800056e-14 0.0000000000000000e+00  7.4370254100151531e-13 2.4164360376433516e-13 0.0000000000000000e+00  8.6570423151438584e-13 2.8128435599461569e-13 0.0000000000000000e+00  1.0170678443707324e-12 3.3046537511570387e-13 0.0000000000000000e+00  -3.3712131931472630e-13 -1.0953735669007439e-13 0.0000000000000000e+00  5.0502734130836327e-13 1.6409333036422309e-13 0.0000000000000000e+00  2.6452484865820161e-13 8.5949333491457002e-14 0.0000000000000000e+00  -8.8894102232595432e-13 -2.8883444700824038e-13 0.0000000000000000e+00  6.9518535136726759e-13 2.2587941324274686e-13 0.0000000000000000e+00  -1.8278622071520484e-14 -5.9390843323735920e-15 0.0000000000000000e+00  -4.4016128758523156e-13 -1.4301707188792372e-13 0.0000000000000000e+00  -5.1835917964268311e-14 -1.6842510722701315e-14 0.0000000000000000e+00  -8.6725828440305750e-13 -2.8178929838724666e-13 0.0000000000000000e+00  -8.9384795855318890e-13 -2.9042880723698724e-13 0.0000000000000000e+00  -3.2755222442147625e-13 -1.0642816928343467e-13 0.0000000000000000e+00  -6.6260716571939716e-14 -2.1529411905583494e-14 0.0000000000000000e+00  -3.5392558351750695e-13 -1.1499739311149038e-13 0.0000000000000000e+00  5.2196253304388906e-13 1.6959590771981676e-13 0.0000000000000000e+00  -6.3778216701061464e-13 -2.0722798801457638e-13 0.0000000000000000e+00  9.8919166489884347e-13 3.2140785534752143e-13 0.0000000000000000e+00  3.8995342502814325e-13 1.2670354843369293e-13 0.0000000000000000e+00  4.1090183026738187e-13 1.3351009790212485e-13 0.0000000000000000e+00  </DataArray> 
</PointData> 
</Piece>
</UnstructuredGrid>
</VTKFile>