<?xml version="1.0"?>
<VTKFile type="UnstructuredGrid"  version="0.1"  >
<UnstructuredGrid>
<Piece  NumberOfPoints="201" NumberOfCells="657">
<Points>
<DataArray  type="Float64"  NumberOfComponents="3"  format="ascii">-0.06709731518366314 0.3695207947027339 5369.25414372245  -0.4214412376098571 0.5884355654346989 -5369.490267698212  305.8374894053222 0.7206204989356262 -5102.551237639908  579.3507708581668 0.8701017404160618 -4330.746207367842  792.6842454470121 0.09225347009335925 -3137.960493360493  926.8921733034034 -0.08268801716797561 -1645.902847250759  973.0085327574931 -0.1653212033709796 -0.1275630696100587  927.037778772013 -0.1274314426730617 1645.922697052162  792.8234899121683 0.4214486909292576 3137.585120501636  579.7873107324348 0.496193236863224 4330.856123071525  306.3113314439514 0.5232981991331569 5102.524043839837  387.8955027841602 -770.603827305824 -4660.636813747014  385.3082358463448 598.8028182689994 4776.723692205235  929.0136278828153 -709.308897450591 -789.2285528742983  675.0460139436725 -758.3082944531361 3564.160788695606  847.8803775655899 712.1573536714812 2241.797587356271  844.2472107465862 711.7468919966415 -2281.258971336407  432.7512946476541 691.374951692935 -4598.227383053715  149.6080257858803 -685.5455938988421 5104.137856439097  670.269402724508 -698.9394600908793 -3640.084199578102  470.3504717246779 -1367.181478768229 -3766.831571208614  695.1780613419243 -1355.307444919551 -2588.06822402619  481.2971246783981 -1934.259045229451 -2489.169528104743  674.5740689939176 -1829.530329934672 -1223.671238675045  427.4918656846298 -2316.789472430832 -1040.902766637914  605.2254310502524 -2084.894647789035 262.9075616661808  320.8557206586681 -2476.095555235192 475.098643342973  463.0378475736241 -2144.881828506269 1802.247272286027  167.8472656673561 -2398.372322062681 1918.519243049869  296.4609663615828 -1941.494023511783 3171.503870975719  -11.45047191277149 -2084.086271415255 3178.868749320417  702.9296566306108 -1691.123560160263 1518.349789334743  670.5256832789662 699.2583564701648 3640.149020906233  681.651408263134 1363.192401501929 2677.255663873292  821.5233362581764 1318.048719380268 1209.338623890997  110.7464048777419 -1534.533985493307 4255.891834471033  403.4040387272917 -1350.394135445729 4008.767269677789  470.2637148730136 1288.225204843044 3883.850338842658  455.3395351450462 1901.447818279903 2717.792748631448  930.7415110538644 -691.6825016780673 789.1163448068875  826.9627886671346 -1427.743999030445 91.31602527963526  849.4013855958062 -712.755382474659 -2220.00832996941  149.2618299821755 686.5256783778381 -5104.470194881212  663.9019787010128 681.1243255429184 -3690.309529318294  676.441050935596 1355.098289301166 -2731.421925903582  208.0067095964693 -2324.449668779978 -2161.064670730313  -145.7318349637882 -2427.834084322479 1816.23263277164  201.2668020235822 -1391.673343117184 -4369.758167302798  815.9039826692825 1333.502866519011 -1249.96832169149  616.8115972995873 1919.32732937187 -1507.084587150985  439.0747420302968 1850.702765180989 -2924.892750795407  348.8392167991766 2320.319617724202 -1627.090704851229  153.9468668906632 2162.544878149137 -2848.428098340355  45.40825403654195 2510.625371449004 -1477.388913983006  -158.1617559943572 2228.451017459815 -2628.998965237543  -261.4938020072389 2469.933104214483 -1113.677002892313  -457.6909464959532 2104.695429891799 -2012.356709774996  -50.36291190074777 2618.700853080108 98.47112480157048  -319.3393763901786 -2008.851904316941 2929.165131513316  -441.5531629703857 -2241.616821265908 1448.203109459252  -537.0629866669454 2199.013722834501 -543.3566111017204  -703.4497080526263 1720.114625463822 -1377.267675661216  -748.1692692185835 1721.052518429642 123.1854411176363  -870.2678321531369 1136.56426136562 -859.6662620635739  -881.3352673335711 1079.348549635261 801.8679061141016  -775.7263406988477 1069.046099589558 -2451.650291682608  -719.3234674675101 1586.455453319034 1728.814006255525  -916.3319297205055 470.7245084896184 -1560.748125730558  -815.6325148207178 881.1864568663971 2359.22030217031  -784.0607078046395 299.2428107206855 -3147.501345610978  -877.3020978837314 -340.7579989705373 -2243.081597389022  -611.9511795866738 1316.663429790131 3209.887007645132  -137.2953953433407 -1056.353507556567 4825.882146156123  -597.9007204821593 -1728.292716140575 2385.113684718053  -706.3895035998713 -455.6432380642723 -3596.685746263735  -763.6234366635633 -1078.732373416459 -2544.87474494446  -936.3272208555788 299.4105834818156 1346.3445941658  -333.4987624736868 1723.835106023872 -3566.268855089175  -673.4816222835326 560.6764799248002 3723.927376883383  214.6883772910561 1737.91848777334 3787.241449785881  -905.0530446346992 -892.5552280861095 -902.8356848460961  -574.4239735156805 180.9152242691589 -4336.930497924975  -449.1692867941543 991.7884467223383 4304.14761894446  -553.895720117775 -1146.646580699756 -3746.321762764293  -581.6517831333621 -1724.685273049895 -2509.070746508908  -491.9115479906129 1941.671366366502 2407.656332460709  -253.621914200859 -2533.607368981187 344.1077253610798  -472.1259142517236 166.5967049453667 4695.14528200598  -693.6295237360862 -242.00657314908 3753.85913605281  -337.2574710459599 -1712.148740885995 -3578.840384182755  -339.9551782868849 -2204.221641030975 -2214.533859576029  -289.6692133363123 -1072.70479667343 -4609.760461252951  506.976467741216 2263.874400825607 -150.7364951157232  -676.2414656722527 -1866.755207521383 946.080629209437  -807.3605719187075 -1260.119347098523 1654.000048265139  179.7185366691955 2258.923278289179 2482.988983759117  -64.75350779084003 2025.596067323188 3317.347514466225  -22.26594877246456 1512.569201708276 4329.351182935705  -268.5969961870704 635.8308220972849 4988.261064777508  -448.3736170184612 -1396.645215410152 3797.621963526873  235.1700408754142 1698.555741364781 -3827.710365354187  -558.6104705804636 -2097.988941257527 -1165.936337050062  -73.98999289823176 1292.209001801184 -4611.656321074249  -163.259362673075 551.0802170840618 -5165.295582707622  -111.9507239783216 2439.99774675607 1815.899473339578  -209.5572249939915 -390.1207984654491 5180.561716573487  -72.58115653859483 -2124.749343934302 -3045.645755949943  -451.6055007666261 -630.3976261189231 4580.936996315132  -693.47271462994 -1031.855705719611 3148.497728489288  -856.8865305544816 -499.9719528610169 2360.205748379283  -934.9370464959088 -654.5046169593667 747.1092291666308  -968.7256342579 -85.36569394927082 -462.3366149769466  -381.439887008616 1102.202895213933 -4380.249198170407  -576.5655920971827 1230.026380359784 -3528.090946014273  -85.67800712449016 -2459.286637998271 -1750.592781362628  -34.07623288400766 1907.378270442968 -3606.593353731221  399.6702327104361 2302.832455238294 1395.663847037279  844.2561453457533 -680.9877389414936 2322.705192113178  49.39592706483065 -718.7346067459397 -5141.283963185693  159.145240729276 -2556.960870412064 -823.658154267859  -303.5378292909934 1648.117209280521 3784.982453036971  932.7562596281088 664.2880238988422 -806.1257367982477  634.7148488626817 1903.256604369622 1373.167472810966  745.2045697592586 1731.408781610738 -60.89026875927573  -753.7195863511409 -1563.262039592792 -1348.728712844759  -332.9278669299264 2467.442878742913 415.9313142618292  -554.5769142476989 2129.641333441657 976.7887348886596  -54.22686847341082 -1568.754317809949 -4233.118981075732  -231.4090344032812 -283.1293204528939 -5184.583715775715  -485.9520123134893 -458.2663236069102 -4567.021710961645  232.6133595270541 2548.987326991767 -273.2414926861566  27.39696286213221 -2604.660952539543 594.2447184072224  548.4000009153746 -1643.55097209117 2908.844203579334  934.3773008263036 673.1691332636666 715.3679925050765  433.2874759082325 -685.1520465966713 4600.531819268687  -831.480127004284 -1407.100391393295 131.5290117856476  -178.5805332837075 -1698.466188413071 3911.633794405582  483.0702525590524 1248.438547080861 -3891.599325567264  -838.1334487586472 208.8723228828181 2717.466953843264  224.4007563163212 -1926.381560429265 -3367.100147993272  243.7979658791606 1230.118182550334 4516.234804422982  143.5582881890103 2532.879993870375 1123.949486160363  -616.8785895168934 1636.351882598724 -2507.869419613861  821.8664439964272 -1268.808683650082 -1393.409578188552  -15.12126216709347 662.1739881261635 5182.476012942989  746.3799999244759 -1227.223704715294 2423.667199838093  -946.8209482551152 630.0712091683816 -121.0788149685078  -516.6336129863301 -2250.329911914809 51.50869531558443  -317.2860774092876 -2450.433980752532 -886.0352889929861  879.4398729066442 1166.352794840827 -37.08881105413631  -222.0950032553467 1261.982123519062 4510.358394602243  275.9986435608919 1145.296879378602 -4558.428265322649  -334.3175361531601 188.0276123122428 -5034.906070777422  -366.36022126598 2288.846354899216 1698.537738227317  835.1758230947698 -1180.002155272167 1465.780615427422  -68.65929198592076 -2602.914324860171 -537.0337471961258  -632.6166513432249 671.7322962374277 -3861.467459890619  -434.109956324992 565.4682429554896 -4669.850637247989  -279.7803136041902 2090.986116976309 2805.408639752685  -697.1288851170939 -1867.001941258497 -298.5784523888678  0.003729703974166873 0.05912410563279912 -0.1677633957188545  -311.6189123653982 -1038.520061573308 147.5795307332262  468.811431485791 405.2197554093241 -24.48093463164436  -187.9063826712304 1088.511956981401 1173.551643763355  350.6457601781935 -772.7106991478483 1067.245168998543  -228.4603539322548 112.090209490117 -2373.577834741869  -481.7132689805857 206.1404267538169 1.900162907906735  92.81344944426934 1231.124461707799 -1019.399531892882  326.6163606913529 -606.6972373058127 -1595.952185617427  -253.8529941205194 -114.5712696091954 2301.769297411477  244.4920473219507 913.5623412874253 1855.994236104167  -90.42810141910198 -1041.185783392555 -2017.063380124702  81.08317332096919 -1511.23562671526 9.772806855783582  194.2856838276393 397.8831865521665
[...]
<PointData  Vectors="Velocity"> 
<DataArray  type="Float64"  Name="Velocity"  NumberOfComponents="3" format="ascii">-2.2282171167830354e-09 1.9143253889250965e-08 -5.9958993092552080e-06  -1.9417346739064383e-08 2.6922203665211994e-08 5.9852268747931529e-06  -1.5008959664523739e-07 3.3332807984531792e-08 5.8802247438503945e-06  -3.9924690666345987e-07 4.0848713925710147e-08 5.4429976944672832e-06  -7.7441769447332907e-07 3.7982618158952245e-09 4.3387760171250233e-06  -1.1477715908860468e-06 -4.3862521462722565e-09 2.4529238514453628e-06  -1.2830596964507579e-06 -8.2270510321238548e-09 -5.7552540757419359e-09  -1.1404923553030894e-06 -5.3634358780924463e-09 -2.4517982092271998e-06  -7.6732570116528800e-07 2.1375503883342996e-08 -4.3558910290095736e-06  -3.7814933569235775e-07 2.5073128037021441e-08 -5.4385004894400803e-06  -1.2739340777459689e-07 2.6270460169284905e-08 -5.8814956520259550e-06  -1.7212532431716037e-07 -8.1274678531947495e-07 5.5457730553549141e-06  -1.7222507024831600e-07 6.4202755095184114e-07 -5.6723822385416431e-06  -1.0844151175427574e-06 -1.8724263371720620e-06 1.1907803206252891e-06  -4.8760635214659775e-07 -1.2612138223664612e-06 -4.7145578097770090e-06  -8.4782329212094133e-07 1.6299617293103866e-06 -3.2344584022921702e-06  -8.4987953506665439e-07 1.6094020628950153e-06 3.2745394874169002e-06  -2.0955673244233774e-07 8.0308962400661568e-07 5.5212952882562256e-06  -4.8034511222150444e-08 -5.2305241488502056e-07 -5.8062703462519987e-06  -5.0381822963963492e-07 -1.1734686966918572e-06 4.7918141833901966e-06  -1.7407691798018284e-07 -2.0907795555092134e-06 4.7141460396950186e-06  -4.2980532677060807e-07 -2.7974082995338788e-06 3.5273586201073963e-06  -7.8427434047815742e-08 -3.8285195380534006e-06 3.2234477203507811e-06  -2.7531729980558265e-07 -4.2989342291761176e-06 1.6840471904054132e-06  2.5300423156986712e-08 -5.2288444928095084e-06 1.3570534704961918e-06  -1.2594167504307143e-07 -4.9836166869545678e-06 -3.6199974540717722e-07  7.2288463610954903e-08 -5.6221927316182995e-06 -6.1609740785201343e-07  -7.4852382341547792e-09 -4.5857069691473238e-06 -2.3539422837394786e-06  4.6148280632964779e-08 -4.8797309635854639e-06 -2.4052819538320372e-06  3.5878197780724925e-10 -3.2683324147070779e-06 -3.9229702154401332e-06  3.6171508970773442e-09 -3.4393268441255373e-06 -3.8699058745109776e-06  -3.4769334414151493e-07 -3.9196674116539166e-06 -2.1099666928301448e-06  -4.9076201234977969e-07 1.1895823172157204e-06 -4.7886657178410237e-06  -3.9270377388787147e-07 2.7635711463208970e-06 -3.6267468038802421e-06  -6.6184849500133080e-07 3.2352726146364493e-06 -1.7494265084112751e-06  -6.3395669106026300e-09 -1.8850954893321407e-06 -5.0284602568988587e-06  -1.2475712281836467e-07 -1.8831868610214006e-06 -4.9268225158089711e-06  -1.7438216296035779e-07 1.9246608296179953e-06 -4.8389490783500795e-06  -6.5377799257275700e-08 3.6266158769344867e-06 -3.4908295892161295e-06  -1.0889183667622513e-06 -1.8094725513390413e-06 -1.1914046734174558e-06  -6.5763689879803270e-07 -3.6431912141394189e-06 -1.4062987966619988e-07  -8.6765269670519104e-07 -1.6295238813356825e-06 3.1926257698018089e-06  -6.5128800879561530e-08 5.7033556885220655e-07 5.7905337291437082e-06  -4.8436551780808746e-07 1.1282122652514832e-06 4.8415210386203725e-06  -3.9006523353203126e-07 2.7098856320614303e-06 3.6800324399298067e-06  3.6538289391404596e-08 -4.6225385485786428e-06 2.6990911395307028e-06  -3.5764883228515906e-08 -4.9845452080010605e-06 -2.2762691710805975e-06  -4.6006379095373647e-08 -1.6312887831694041e-06 5.1645679113281641e-06  -6.5798345781008295e-07 3.2600250271172395e-06 1.7983293294304321e-06  -1.7757786709337040e-07 4.3344222543604472e-06 2.0410092577709267e-06  -7.6048822652399637e-08 3.3718629997499367e-06 3.7125973609811640e-06  4.3822112811153601e-08 4.9428052424255448e-06 2.0899848020817040e-06  1.0597234479882818e-08 3.8527623681839142e-06 3.5035857717191457e-06  1.9231270678417968e-08 5.2776298169519234e-06 1.8518319640734512e-06  -2.7726341144288650e-08 4.1288157331107601e-06 3.2479209253388723e-06  -7.0806526990497493e-08 5.3908630105561379e-06 1.4204123573669108e-06  2.3954565474481121e-08 4.3827008308490042e-06 2.6098252457251030e-06  -1.6974623054429355e-08 5.8479652719944866e-06 -1.3191816418839354e-07  6.2946199330822754e-09 -3.5688336795382953e-06 -3.6616425555136163e-06  -1.5579414495706279e-08 -4.9220999490083267e-06 -1.8910947804252894e-06  4.1254694848299006e-08 5.1340750512481069e-06 7.2415853612553180e-07  3.3723532787252648e-07 4.0293865184709803e-06 1.9202746648439807e-06  4.1245250232488810e-07 4.2598049521476417e-06 -1.7478154229830554e-07  8.3374520175398015e-07 2.8750869288679062e-06 1.2607073557674969e-06  8.8616780389364091e-07 2.7558714229541102e-06 -1.1876446556436080e-06  6.1813053723991031e-07 2.3132548169487340e-06 3.4245782055543147e-06  4.0510055559745490e-07 3.6388226455274073e-06 -2.4108169240291293e-06  1.0894344105609399e-06 1.1727139426084885e-06 2.3126505503561264e-06  7.5032531251717212e-07 1.9625005972118952e-06 -3.3561353201016886e-06  7.3311385646657496e-07 6.0448493947702269e-07 4.3515262431845941e-06  9.7331412615862710e-07 -7.9543728302642856e-07 3.2604994280396145e-06  3.1494485968143323e-07 2.3762055734850195e-06 -4.2176289579816993e-06  4.0926486330580258e-08 -9.7634048476332447e-07 -5.5796578583969623e-06  2.2066846837316302e-07 -3.5622576011662734e-06 -3.1800946507875777e-06  5.7203142630325903e-07 -7.8255396640771816e-07 4.7939394949833505e-06  5.9750894530195776e-07 -2.2896085025107263e-06 3.5353283558790875e-06  1.1640627181735785e-06 7.7758563510035505e-07 -2.0234110725881809e-06  4.1491330614848753e-08 2.6979221998428302e-06 4.3921147422072725e-06  5.0562975165648357e-07 9.4210553109225745e-07 -4.8887431284335013e-06  -1.9686266605878009e-08 2.5376325779853314e-06 -4.5765923277273203e-06  9.8361780025628059e-07 -2.3210976859395748e-06 1.3379016084860525e-06  3.6300939577470792e-07 2.5869919549539182e-07 5.4297552784177641e-06  2.0747644312117999e-07 1.3195671294364754e-06 -5.2633442893861963e-06  2.6115463395175497e-07 -1.7829319711584857e-06 4.7722545941586809e-06  1.9434578478244544e-07 -3.4950735138032110e-06 3.3134640811210501e-06  8.3978853819160147e-08 3.9068422911832588e-06 -3.1222380752369347e-06  -7.3587226590777987e-08 -5.7285040019794537e-06 -4.4028437724387261e-07  2.5984612440630647e-07 2.0470066588400705e-07 -5.6727709916770551e-06  5.7291859629284434e-07 -3.5805036608383118e-07 -4.9706274073638730e-06  4.2006389587375461e-08 -2.6517646873547972e-06 4.4107603846469956e-06  -3.2754771634888259e-08 -4.4152873338488248e-06 2.8044659425868464e-06  7.9566702957023767e-08 -1.1307944716392638e-06 5.4261570143593367e-06  -4.0138136818789375e-09 5.2905464921648717e-06 1.9971308286202478e-07  2.6705822461934242e-07 -4.4593328473856143e-06 -1.3107994855212858e-06  6.4859890947298498e-07 -2.9935676116538073e-06 -2.3685202182787799e-06  2.8203332482194229e-08 4.2923150587767196e-06 -3.0861957355397612e-06  -3.6252195139238066e-09 3.3062318742064008e-06 -4.0307098328199790e-06  7.0040467759839692e-09 1.8350668336359708e-06 -5.0786003987279951e-06  1.1009202735252946e-07 6.2295152450241127e-07 -5.7615353691073247e-06  1.6430574964335951e-07 -2.0984907433091250e-06 -4.7320266316289934e-06  -3.2803076868503059e-08 2.4538730447855849e-06 4.6266472906130300e-06  9.1040598169327682e-08 -4.8422267398359551e-06 1.5570830928157789e-06  3.6175774154403537e-09 1.3654345729671485e-06 5.3375855627558942e-06  3.9814921722709753e-08 4.4302069570974694e-07 5.8500535048347112e-06  -3.0492347737130933e-08 5.0105845306811326e-06 -2.2778561064632339e-06  8.2229292546598131e-08 -3.1584925256620738e-07 -5.8997219216637933e-06  -1.4146368544599309e-08 -3.6363579915425070e-06 3.7127988744323360e-06  2.3356409416089813e-07 -6.7565476612747843e-07 -5.5412244498323442e-06  4.9012912998100674e-07 -1.9138655490238379e-06 -4.2234847907704243e-06  9.1461770040811057e-07 -1.1205754557810354e-06 -3.4053542404836936e-06  1.1256997378751098e-06 -1.7277328601277357e-06 -1.1232847540689799e-06  1.2819671704520902e-06 -2.3687628212586579e-07 7.0447587229912336e-07  1.2672332355675020e-07 1.3664403078029654e-06 5.2738641202503540e-06  2.8464561823926879e-07 2.0385969174565190e-06 4.5517377689165919e-06  -2.9460830515316121e-08 -5.0846402049668561e-06 2.1819487692977308e-06  -2.5458460538704337e-09 2.8743312736377866e-06 4.3312332334521528e-06  4.0185548104010439e-08 5.0323058796669393e-06 -1.8122974932625674e-06  -8.3533205708659080e-07 -1.5421243470054961e-06 -3.3425310390252024e-06  -2.7072525078266305e-08 -5.1836558020008650e-07 5.7963493619338391e-06  4.9492473613585789e-08 -5.6729612417787647e-06 1.0399363194246700e-06  4.9859700368289907e-08 2.4476792434129769e-06 -4.6239212605446341e-06  -1.1001468902122225e-06 1.7191118014708124e-06 1.2135524672401772e-06  -2.0026141776410718e-07 4.3640709560251378e-06 -1.8745989284361599e-06  -4.0312859655268849e-07 4.2818577489521109e-06 8.9404541271898160e-08  4.6337254916793051e-07 -3.7441340828832199e-06 1.8982191316514782e-06  -7.4026269415119492e-08 5.5890071080710577e-06 -5.4344462292509946e-07  6.2794533198202984e-08 4.9168855469146238e-06 -1.3129516149652855e-06  9.3108072976553359e-10 -1.9259987648329989e-06 4.9883095474356360e-06  7.6652303636409487e-08 -2.0048369743948937e-07 5.9000310061110751e-06  2.5179607580002243e-07 -5.0643246325045309e-07 5.5530033430611549e-06  7.3700069803008440e-08 5.7419589562967453e-06 3.4293676574136912e-07  1.4907534529028440e-08 -5.7898017955037583e-06 -7.5100892677828889e-07  -1.8311939041030824e-07 -3.0705023413770487e-06 -3.7841786459541263e-06  -1.1034585451881499e-06 1.7601047198547134e-06 -1.0817466498272521e-06  -1.9532726515498654e-07 -7.3746799381914870e-07 -5.5379742744042768e-06  6.7830764232624174e-07 -3.6235968891073233e-06 -1.9411318866810304e-07  2.2463120132642229e-08 -2.3419378516159917e-06 -4.6843660559381049e-06  -2.0002399861432336e-07 1.8413012200894351e-06 4.8611974018327498e-06  8.8507478140862468e-07 4.6651447020893653e-07 -3.8687085792238799e-06  -7.7673260266793415e-09 -3.0963206646186291e-06 4.1108083043654008e-06  -5.5461974867512499e-08 1.4162111883006472e-06 -5.3209324561934159e-06  5.0740205991686162e-08 5.4883779807429368e-06 -1.4189663480797367e-06  2.4266590091163339e-07 3.3239793758150338e-06 3.3355789827494222e-06  -6.8512144549646283e-07 -3.0916886972850926e-06 2.0000224012979770e-06  9.3589672061813478e-09 5.7231759073203941e-07 -5.8485170391949443e-06  -5.2738189119547242e-07 -2.6274459073397909e-06 -3.3617494885187284e-06  1.1446628962906300e-06 1.6715994072405672e-06 1.8340413042656144e-07  1.3646377352424207e-08 -5.2979584698708455e-06 -6.9158618184807086e-08  -7.4674248602434367e-08 -5.4919139824703421e-06 1.1313254449432621e-06  -8.3872888776275918e-07 3.0116476339311403e-06 5.3654818210265184e-08  5.5041063149034388e-08 1.4505481805543157e-06 -5.2990405897700039e-06  -8.4868123027956996e-08 1.2799692294322046e-06 5.3663916728231308e-06  1.3338155971206371e-07 2.0785027568120781e-07 5.8362919619832065e-06  -3.2187333562821966e-08 4.8638473780055850e-06 -2.1867583046225238e-06  -7.2927629499963475e-07 -2.8721861239146164e-06 -2.1269809639622809e-06  -2.5320821628921740e-08 -5.8060990694399092e-06 6.7612538356230805e-07  4.1324390222479982e-07 1.0481267947290275e-06 4.9851108442305207e-06  1.9901905056529045e-07 6.2842755554924686e-07 5.5915047192075422e-06  -3.3113407895516713e-09 3.8154862463122600e-06 -3.4952608393202917e-06  2.8600365086110031e-07 -4.5777346667687692e-06 4.0973450811150003e-07  -1.9521924787524188e-10 2.7664643883777010e-09 -7.7778025003001244e-09  3.4138712008586627e-07 -2.9223598163091493e-06 -2.1733803175222221e-07  -6.3095776586652325e-07 1.1541096960769152e-06 3.0003474655928411e-08  1.9674756474062839e-07 2.9177548618365296e-06 -1.7366154888655638e-06  -4.1250305316012457e-07 -2.1246790149889115e-06 -1.6007938399792965e-06  2.6767545115752969e-07 2.6022477429623462e-07 3.4452625038666201e-06  6.7107524648904317e-07 5.8356317127126159e-07 -5.9515485637944900e-09  -9.1124815221871990e-08 3.2917440635596377e-06 1.4905775101046392e-06  -3.9302484610570824e-07 -1.6263705589476966e-06 2.3610381789298962e-06  3.1537043566281333e-07 -2.7353490653583436e-07 -3.3579148622288086e-06  -2.5163637084320839e-07 2.3292395197507879e-06 -2.7013652230211875e-06  8.5697530489354167e-08 -2.5881122492488008e-06 2.8899055534607493e-06  -6.7588985482105672e-08 -4.1021533400557280e-06 -1.8348353415024561e-08  -2.1861809622565104e-07 9.2139969389317785e-07 3.7696602726801992e-06  7.6682929910159632e-08 -2.8843068737503377e-06 -2.8623756141757612e-06  -1.8440173693261883e-07 -2.9879376445750461e-07 -4.0152950892638395e-06  3.3332630140214754e-07 3.0727884689608362e-06 1.4627212189042164e-06  5.8792387006642040e-07 -1.4604761292238189e-06 2.2098598754680662e-06  -6.1009698111677233e-07 1.8342822562511700e-07 -2.8061054661827561e-06  6.5515034827122808e-08 1.5226468539903446e-06 -4.1537946459601778e-06  -6.7489066637541295e-08 4.2229115641262264e-06 -1.0929204665717528e-06  -4.4084206700513705e-07 2.4391775115690470e-06 2.3525440120535290e-06  -3.7868580243662931e-07 3.6006301303553448e-06 -2.1515855429315927e-07  5.6513724547282925e-07 1.5674882274962770e-06 -2.6539082631298918e-06  -7.6329570324732519e-07 -1.4346217695182347e-06 4.3347950205235736e-07  9.2520407500492238e-08 2.3502799512990187e-06 3.6823713954680715e-06  7.1001527815656644e-07 -1.5078931895135577e-06 -1.7431275005238042e-06  -7.0058182622195243e-07 2.4838183272686203e-07 2.6061832679823732e-06  -3.8315189024909779e-07 -3.5639343812340085e-06 6.4725267545555527e-07  6.3199177786881310e-07 1.2392912389721665e-06 2.6417646458300044e-06  -1.2548830547041818e-07 -1.0530831472587274e-06 4.4350895642751518e-06  1.2000001045206686e-07 -4.2816135620518576e-06 1.2571933251540766e-06  1.0566348902149518e-07 -4.4536656591501682e-06 -1.1738222275640199e-06  -1.4326351159544670e-07 -3.7706446814553477e-06 -2.3096542396948993e-06  4.4047680555384979e-07 3.4925831524347944e-06 -1.0000764632458321e-06  -1.3383974098114007e-07 -3.6874037069685129e-06 2.3677934063364915e-06  7.3468535279286392e-08 4.5731291032875504e-06 5.5707332759482460e-07  2.9859759346875056e-07 -1.4083610170028880e-06 4.1412172263259144e-06  -6.1600769832741379e-07 2.2424609054109263e-06 -1.9969921983416939e-06  -8.1619486898069356e-08 2.2747025640120380e-06 -6.4183463592607626e-07  -2.6900080503365447e-07 1.2145314014817435e-06 1.4274967673168180e-06  </DataArray> 
</PointData> 
</Piece>
</UnstructuredGrid>
</VTKFile>