<?xml version="1.0"?>
<VTKFile type="UnstructuredGrid"  version="0.1"  >
<UnstructuredGrid>
<Piece  NumberOfPoints="201" NumberOfCells="657">
<Points>
<DataArray  type="Float64"  NumberOfComponents="3"  format="ascii">-8.348011146774295e-05 0.0003133578076552688 5499.872870187764  -0.000407221998080524 0.0005715351824881638 -5499.87310325304  309.0139944485506 0.0006928694067040929 -5230.68609430108  587.7773229602498 0.0008247870198969714 -4449.477761169121  809.0016799475458 9.766881248024153e-05 -3232.726422286659  951.0339175280716 -6.832864592906637e-05 -1699.541075622559  999.9747868154276 -0.0001475631688062505 -0.0001260700604694331  951.0340457101986 -0.0001330124695701908 1699.541090240417  809.0017995426127 0.0003677840867340533 3232.726055159324  587.7777234883229 0.0004339760675490947 4449.477880084906  309.0144336879998 0.0004614707129067338 5230.68606841495  391.4931890512385 -753.6314773614243 -4781.595572489995  388.9428394847483 585.397933061157 4900.415381034541  951.8275272417933 -670.8930352186267 -815.3048172479865  685.3127735711017 -732.0763423305489 3667.163113301524  865.7401043634326 678.5533551826389 2312.56297479393  862.1406387140419 678.545213218278 -2352.898192166926  437.1485838538757 674.5587833651925 -4718.665258598702  150.6315796479906 -674.5533850686736 5230.687610619553  680.871350629351 -674.5656495580553 -3744.744975601145  473.9448923939941 -1323.521735611253 -3869.948629405775  704.1898350736574 -1297.268054346786 -2665.367651960308  482.8588265400007 -1854.424149842843 -2560.048099321783  680.3443679905134 -1740.372170961916 -1260.734470106806  426.902513815539 -2207.816647128855 -1070.898314339764  607.8542676621564 -1981.389846840179 270.8954770648454  319.2885218415622 -2358.814701274867 488.7459507900325  463.1210850709455 -2049.271306241197 1854.151259127448  166.8301160062441 -2296.355047413729 1971.668787249979  296.3766245901884 -1873.107637578395 3257.634273290408  -11.51616005562056 -2012.030478905786 3263.915495986843  710.2242198301047 -1609.866921825632 1564.732330541297  680.8715704433978 674.5659269435341 3744.745035537241  689.8864928615676 1305.826387157215 2756.728257743597  835.4705897774775 1251.309512796625 1247.717441171071  110.8657749501114 -1494.986246796288 4365.829387455072  405.98019340396 -1310.974712758358 4116.485348036606  473.8946972549913 1248.038928734285 3989.650586586779  456.64045501466 1825.767055958804 2794.506825127392  953.6497268054883 -654.543485581061 815.2012061594532  840.822401680561 -1352.615729236397 94.40395271627052  867.6571332310424 -679.1586219209489 -2289.85533111186  150.6312691415162 674.5542870501565 -5230.687923334425  674.0942177335027 657.6435278817396 -3796.050404518674  684.6068489935565 1298.798761431267 -2812.052324221977  207.1727718113623 -2227.834529066298 -2220.637563359478  -144.9416291232367 -2323.633607889184 1866.55564875747  202.1918552722618 -1357.490097101812 -4482.600095234893  829.7617118105215 1266.228592717194 -1289.42037781247  620.5044856936182 1829.250749507404 -1552.022945906784  440.5897720696485 1780.286329463351 -3006.412104289575  347.8504691572508 2217.132960793163 -1673.259466853963  153.6761652685183 2081.896814453366 -2925.525150913793  44.98710218614816 2400.308103723288 -1518.383266820937  -157.5375795855137 2142.043245590834 -2700.544516050945  -259.9511515252963 2357.37338514065 -1145.128399052282  -458.1273696714566 2013.292544348028 -2069.860712263191  -49.99851243228548 2496.561533789204 101.4008594824834  -319.3807149194359 -1934.210566032039 3009.641463460261  -441.1579450286159 -2139.00311694322 1489.959952703073  -537.9031894854839 2092.220790311721 -559.3532539949846  -710.5420618303648 1636.586967201112 -1419.494245351581  -756.8679547240048 1632.956548529118 127.026856617418  -887.8278374562226 1077.390197246524 -887.3001321296774  -899.9965392729914 1022.655110373798 827.9028671149104  -788.732496877388 1021.169587985485 -2526.638222882696  -727.8318242314092 1511.06057594855 1781.763750741571  -939.2600421155634 446.627496232561 -1611.339869127865  -831.4224391664326 840.6782779138939 2432.668182337892  -799.5175857761068 286.715095526598 -3242.559991912104  -897.8045960242046 -324.3751338335404 -2314.371054802126  -618.5205749825407 1267.227969993345 3302.2219922617  -138.127120693171 -1035.837951522732 4947.599656727571  -602.4830056420758 -1654.162515489292 2454.958971676634  -718.4498427259675 -439.4108589764926 -3701.371512512892  -776.1955871987327 -1031.34388406228 -2622.272867160296  -960.8181072978458 283.446297751675 1390.610163403215  -334.2963808939206 1667.350045863631 -3662.528519165458  -684.1200410108389 541.1196674539682 3830.674814495783  215.0617286608031 1684.786068648839 3887.489378358012  -925.7650610053141 -844.8729187232809 -932.1406801173861  -582.0824293710385 175.5032078812656 -4455.372494726344  -453.4956858445372 964.2212295669455 4419.06290101644  -559.3449466336083 -1109.477137407709 -3850.642567339187  -585.6870219042206 -1651.953386042421 -2581.825861128428  -493.6006795535422 1860.234721479554 2476.31471845108  -252.033311010724 -2414.055317055194 353.8680017969541  -477.5976309911842 162.3487748294309 4818.829557396334  -705.6944893407003 -234.5501787916161 3862.357541447055  -338.0634268647615 -1656.675909260538 -3675.486297159313  -339.1874498186643 -2112.02275230117 -2276.354693087324  -291.3075119141146 -1049.055243257027 -4728.169539345977  507.0244505011662 2153.776861419178 -155.1529342852353  -681.8547657319689 -1774.2806638722 974.9457413117286  -821.0059617622393 -1198.274969095738 1705.942396296404  179.0841805903156 2169.170022146977 2551.00483853315  -64.64551299239483 1956.355413878336 3405.871081979057  -22.39474326205562 1474.124125341176 4440.366638383652  -270.8904559925542 622.8127028922671 5113.861316096995  -451.7628696893419 -1352.767688452863 3901.133596481493  235.7942067432375 1647.109721593149 -3929.037675638438  -560.5008023012755 -1997.292145993044 -1200.282568780537  -74.05118559219399 1263.56732042089 -4728.194063881389  -164.0905169468282 541.7711845347397 -5292.787939144228  -111.2718977097176 2335.256006532864 1866.261499334096  -211.2767136171888 -383.4612806090887 5309.11414685641  -72.26237328486368 -2048.634857528092 -3127.287836969424  -456.5041935367819 -616.2454456139021 4701.790379918204  -703.7618696055559 -992.0993954169846 3240.878190431415  -876.1406346858531 -476.8577439687681 2434.671586998513  -958.6234383015278 -619.057821284008 771.698502702534  -995.6740484476711 -80.52111719515702 -477.7488462205562  -384.0677668851794 1073.575297981325 -4495.406971017092  -582.5102555034581 1187.513046557674 -3627.653813015155  -85.04044777750697 -2353.011286979051 -1798.854891890885  -34.01757845525449 1847.130524820182 -3701.58886864398  398.7638916784246 2197.886432636743 1435.702314784021  861.8524777482837 -649.1532482677704 2395.833303868209  49.96576867860517 -707.917878253463 -5267.608102227798  158.0692774519161 -2438.492730589317 -846.7095881508295  -304.5087076828387 1596.881374919728 3886.239915936747  955.8955688594855 629.0173918764154 -832.6873105025403  638.9043598633406 1812.636327952175 1414.441594373569  753.703401097554 1642.847135982326 -62.85461656192324  -763.4746222796473 -1485.791790566908 -1390.427784217503  -331.3234269376093 2350.867079616452 427.9715769655163  -555.8588335449647 2027.373947406623 1005.764496522084  -54.23489116646228 -1528.379387167151 -4342.198593153906  -233.0230506752146 -278.9616247041239 -5313.138922520197  -491.2506293711257 -447.7146896345747 -4688.12017568191  231.023741502982 2429.130178448301 -280.8530167496829  27.07235960193705 -2483.719994318504 610.9100219656539  552.1882453992887 -1579.547802602839 2991.832597326318  957.5864074463459 637.0648953288569 739.0493961696716  437.394955266467 -669.7021074521394 4721.321517581894  -845.782567553128 -1332.405793065777 135.7881483467437  -178.9932627546885 -1649.384125124472 4014.18631026089  487.2203055116776 1209.945683049655 -3997.876310740634  -856.7707098208188 199.2655748148269 2802.012200818946  224.4894612212936 -1861.586305932523 -3457.307751198188  244.9419184723607 1200.464525612657 4632.425262184662  142.4602359098248 2418.233077814871 1155.385500372658  -621.9338664428201 1567.208258723191 -2581.074942820594  836.2853561085492 -1205.023730104781 -1437.275370694522  -15.30246275062855 650.2005183669394 5309.944134867508  757.4670715211466 -1172.784387040789 2497.309971253693  -970.8991690148458 595.817104918227 -125.0930130462391  -516.8880190718628 -2140.09868558536 53.03801582582202  -315.6623648734322 -2335.856234710807 -911.085211556394  897.1007294645592 1104.401014040464 -38.2655450965737  -223.2009724737718 1231.618040779118 4626.073042279058  277.7442614397742 1118.460301880983 -4675.576991783215  -337.1335622589667 183.6470410845427 -5162.097803048874  -365.6121402996224 2187.344136479381 1746.82842820451  850.5287051122972 -1120.758152093187 1512.406118218787  -68.115084208002 -2481.652321719631 -552.026086217815  -641.3123229517977 649.8989072221915 -3970.31974297121  -438.2959465933733 552.3079891705554 -4791.793351078602  -279.6334414587502 2011.230356555631 2882.289249449334  -703.1541183754921 -1772.159331738185 -307.6086990080945  1.143059005645599e-05 5.653788166374528e-05 -0.0001613027407713036  -318.8659503480895 -978.1858658405907 152.3451895724722  482.1625872926703 381.4728359323206 -25.14226585964683  -192.0825481812427 1028.171214856058 1211.636704947944  359.3939691512188 -728.857689052548 1102.310601873873  -234.1418028218199 106.6861656841396 -2448.922120400563  -495.9087393699264 194.1541762600172 2.025781954241196  94.7442753988903 1162.997661291186 -1052.10670189578  334.9408444642721 -573.1085830264535 -1647.647497596371  -260.53479207767 -108.8941275510956 2375.216617040291  249.8351270223655 865.3558907098326 1915.173477219447  -92.25687052552679 -987.5336167678895 -2080.385885241631  82.52102455698243 -1426.266297559128 10.17325083351702  198
[...]
<PointData  Vectors="Forcing"> 
<DataArray  type="Float64"  Name="Forcing"  NumberOfComponents="3" format="ascii">-2.8764598478433872e-05 -3.0888740037756433e-06 -4.8000398992361517e-05  -2.2566834919260302e-05 -1.6481040225430050e-06 5.2643057845652914e-05  -7.1160455722564059e-05 4.8031866605651227e-07 4.9681808087894804e-05  -1.5905564427583802e-04 4.1293569593727505e-06 4.6551560644805472e-05  -1.4756740904663384e-04 -1.2043088069493014e-06 2.1652441565474529e-05  -2.5758915317679082e-04 8.3024792216916579e-06 1.7396350322988342e-05  -2.7975892380461485e-04 -1.3736533455625907e-06 2.8182613831377822e-06  -2.7708001654702528e-04 -9.1777048216677218e-06 -1.4845010468733037e-05  -1.6793981729521003e-04 1.9687573226946349e-06 -2.4942697592563954e-05  -1.5043620646804301e-04 4.6809405290036181e-07 -4.2068263017231744e-05  -7.0257528434346223e-05 9.4980531018413864e-06 -4.1467756503308112e-05  -9.5395999491315345e-05 1.6814777458501859e-05 4.4758236353712305e-05  -1.0438692883095602e-04 -1.7184476009104726e-05 -5.0463127977278610e-05  -2.3360582350982360e-04 1.3446964122465711e-05 5.7203687073049348e-06  -1.6269851583617246e-04 1.5938213573727231e-05 -3.7945521969631990e-05  -2.0755038728756904e-04 -1.3725312648638702e-05 -2.4031998737205071e-05  -2.1374675611952957e-04 -1.7236740241985194e-05 2.5459073423678163e-05  -1.0904532525887372e-04 -1.4331421460599331e-05 4.8122987357283096e-05  -3.9151580529175003e-05 1.5383353761959005e-05 -4.7733476035444440e-05  -1.7220208564324796e-04 2.0314927195798050e-05 3.7408900185357650e-05  -1.2447632435569033e-04 3.3570317145703734e-05 3.8721396750092805e-05  -1.9000503600277613e-04 3.9637132151249220e-05 2.5936377940511861e-05  -1.3073751742106955e-04 4.9272008614169713e-05 2.2196665658717670e-05  -1.5943043041868920e-04 3.5481040961478521e-05 8.8295349825720106e-06  -1.0323996667116268e-04 4.6887431052701217e-05 1.0388812124700471e-05  -1.4768123574168356e-04 4.4798592412453606e-05 -5.1216852123530549e-06  -9.5474088863067771e-05 5.4793923525015321e-05 -5.5308243659833924e-06  -1.1215897500737611e-04 4.8538338146028344e-05 -1.8560480575600045e-05  -3.5807518672863046e-05 4.4302481433807998e-05 -1.8039592965543432e-05  -5.2109461162171349e-05 2.0270339071725789e-05 -2.0357028720098651e-05  7.2651594231240778e-06 4.7743091357515357e-05 -2.9967970825783479e-05  -1.9174779300072585e-04 5.0245629272186182e-05 -1.6792244810719756e-05  -1.7253590745762125e-04 -1.8128748062419219e-05 -3.3569198495919595e-05  -1.5749677126409921e-04 -2.5969473067369330e-05 -2.3064415496747964e-05  -2.1090990244714266e-04 -2.3914623131906797e-05 -1.5375412776537120e-05  -2.2848313374187499e-05 3.6842259637685887e-05 -4.5620862417199293e-05  -9.9079437203794128e-05 2.9706865180606204e-05 -4.1134116311441852e-05  -1.3847318235206749e-04 -3.4132925681855690e-05 -3.8366033055499017e-05  -1.3273417991277700e-04 -4.5070447828682659e-05 -2.3418699801398783e-05  -2.2541045358030314e-04 3.8827728005998619e-06 -7.5792724261980924e-06  -2.1431831700511301e-04 3.3313784252935465e-05 -2.3110194293257164e-06  -2.2227657864849797e-04 1.1427181701379951e-05 2.3848355688729652e-05  -3.3710490181716920e-05 -2.3624110123840679e-05 5.6925557912571232e-05  -1.6405280782134666e-04 -1.3282285125112930e-05 3.5202550441240398e-05  -1.6013671177692162e-04 -2.5019827785316132e-05 2.4094517921523228e-05  -4.8016458358984030e-05 2.7259042162439113e-05 1.8589306201997203e-05  2.2666475087802228e-05 5.0145214611185995e-05 -1.8319151767651234e-05  -5.1151003799261001e-05 3.0546133033529127e-05 4.2248423098500956e-05  -2.3985228853977758e-04 -3.1243196323792800e-05 1.5285348197888173e-05  -1.5706106823915102e-04 -2.9361277561119222e-05 1.2858557032633310e-05  -1.0613593084199088e-04 -4.1716843005234661e-05 2.7934966461248688e-05  -1.1964683939220543e-04 -5.1642755940377682e-05 1.6740887641208290e-05  -3.5537993891583714e-05 -4.6481729102633063e-05 2.9546062070082762e-05  -1.4783420530626444e-05 -5.7761113591713040e-05 1.6612988121570558e-05  4.1317366415388161e-05 -4.9349667761519932e-05 2.2974705800906930e-05  5.4605552196400072e-05 -3.5226141619854811e-05 7.7496416107242753e-06  1.1722530224486368e-04 -5.1142201849049003e-05 2.1829128767305321e-05  1.0692934191679135e-05 -4.9648599224052637e-05 -1.7524228347052873e-06  7.6289985916205705e-05 3.9831166031364742e-05 -2.5050788219928477e-05  8.5178241697418119e-05 3.9904510910651482e-05 -1.3518039145438532e-05  1.4074639142570099e-04 -4.6559824541531968e-05 5.4297978564235147e-06  2.0118391058525213e-04 -3.9644817691636225e-05 1.4022822419265643e-05  1.4193688844767465e-04 -1.7535211667654098e-05 -3.2183172412365017e-06  2.4563108575383888e-04 -3.1096434404252778e-05 7.6242200244379444e-06  2.5437317888312209e-04 -2.7127850346789324e-05 -1.0164415215929164e-05  1.6911383243552500e-04 -9.5928834630453916e-06 2.0233686390824184e-05  1.9928355829023676e-04 -2.3438889526030090e-05 -1.6068525146635256e-05  2.4730324842881288e-04 -7.6634803819359522e-06 1.6352110482628277e-05  2.0775899842539366e-04 -1.5960478215517146e-05 -2.3032084503123031e-05  2.0848455509879274e-04 4.3666290074089064e-07 2.7020028630624390e-05  2.4611308511314397e-04 5.2682326978661447e-06 2.0258485034242064e-05  1.5784906090180096e-04 -2.9785351993743222e-05 -2.9330998248904235e-05  4.8771043878511818e-05 2.0935242851843441e-05 -4.2470029812248710e-05  1.4641435694586269e-04 4.0086863662314668e-05 -2.3701518623248753e-05  2.1111805888904763e-04 1.3126720870156669e-05 3.7041049673713981e-05  1.9071249796874813e-04 1.7922808398032514e-05 2.6161874139633629e-05  2.5453271028661356e-04 1.0112634307835257e-06 -1.1856085614897128e-05  9.3488335484262966e-05 -4.1398545904753245e-05 3.4906465683144689e-05  1.5180709207250281e-04 -1.2497634789706086e-05 -2.7186056307098239e-05  -6.7438333405513240e-05 -4.1142030497991360e-05 -3.9849369699518487e-05  2.4602219448962572e-04 1.6576638212455898e-05 7.2187551106636235e-06  1.7172301242803103e-04 1.5944009664030998e-06 4.4071106134672942e-05  1.3313276617211354e-04 -1.8954923641678242e-05 -4.4298372666995220e-05  1.2759441387058925e-04 2.1098073492109053e-05 3.7306446821694802e-05  1.4388082468344912e-04 3.5124443699353305e-05 2.9307162801637865e-05  1.4297921709457208e-04 -3.7686017980137457e-05 -2.0812717672915467e-05  7.1134737379345775e-05 4.7662932982636927e-05 -4.6069179168975814e-06  1.2775753898982146e-04 -3.7907163595901686e-06 -4.3422961355701567e-05  2.0460707662601864e-04 2.1954510107607058e-06 -3.7536704411764556e-05  8.3266164783095343e-05 4.2059279212832947e-05 3.6126327251593594e-05  7.1132861644566565e-05 2.9366654972475530e-05 1.7110529321971505e-05  6.0260571610994929e-05 1.9208374446655529e-05 4.4182747370728792e-05  -1.2510958810646846e-04 -3.7658469232039533e-05 -1.8192493655682773e-06  1.7856190929926011e-04 3.7576976859872981e-05 -1.2147065340674775e-05  1.7282377633141913e-04 9.9628364338968631e-06 -1.4130395441130772e-05  -5.6283721205505990e-05 -4.6251791272509275e-05 -2.5957971441802050e-05  7.2176258822303987e-06 -4.7170291463793859e-05 -3.4259603529763456e-05  5.5952490779551072e-07 -2.7815593290022312e-05 -4.4257846183717673e-05  7.8875189945352612e-05 -1.7887686891441926e-05 -5.6990903808376422e-05  1.3189277735536621e-04 3.3177223863162143e-05 -4.1351466837652707e-05  -7.1564864682587001e-05 -4.0601341427949708e-05 4.1941626101659054e-05  1.7148342519687079e-04 4.8958543367941273e-05 1.5972891606099880e-05  2.4089712096020031e-05 -2.4992919104390395e-05 3.9625461028704180e-05  4.5588903210150075e-05 -2.4328782549724427e-05 5.2634071817609684e-05  3.0669415397372953e-05 -6.0031615590936314e-05 -1.8051846163375215e-05  5.8860183824309685e-05 -1.9752249401611137e-06 -5.9275916536129365e-05  2.1746141596307275e-05 4.2406607888586324e-05 2.8772730654928987e-05  1.2584239489121777e-04 8.4260142032671434e-06 -4.5177868321924689e-05  1.5731643283464910e-04 8.8910875170525870e-06 -2.9945102765042636e-05  1.9584839832474546e-04 8.9025137829798588e-06 -1.9687373543982916e-05  2.0703435646245150e-04 1.2357096942450214e-05 -8.2146689445361451e-06  2.7064347535446102e-04 6.6881293795904238e-06 6.4974875243173283e-06  1.0458072613482580e-04 -2.4449073001473755e-05 4.5940478962207641e-05  1.5043246673054447e-04 -3.3114670276662124e-05 3.4003209511512990e-05  9.2780622522194248e-06 5.9042954654858103e-05 2.1328939216378041e-05  2.2041273464186410e-05 -3.8049096858441008e-05 3.6520873168411160e-05  -1.1236951853410387e-04 -5.6805258192630513e-05 -1.4004640216441215e-05  -2.4221686497574553e-04 1.5604009929191795e-05 -2.1492129449900018e-05  -1.6200641016488122e-07 1.2096946982766659e-05 4.5783713917484095e-05  -3.2806421918180614e-05 6.1145148529754778e-05 9.7928549915532681e-06  9.8330406091687718e-05 -3.4082364616648733e-05 -4.0032924494032935e-05  -2.6927704592461573e-04 -1.4114422378645923e-05 9.8586691060499560e-06  -1.5917924257332998e-04 -3.4325637457109309e-05 -1.2783355192417250e-05  -2.1484663810389731e-04 -4.6431253719776739e-05 -4.0309292316575666e-06  1.9668062030513624e-04 2.7959611856191131e-05 1.2344863425258034e-05  1.0551209883777766e-04 -5.5450476130573654e-05 -3.3871790307968889e-06  1.2942514823450940e-04 -2.2178656054265452e-05 -7.8449088942878907e-06  2.3040571534062227e-05 3.9032115321848969e-05 4.4031089204133411e-05  4.4389316121893431e-05 8.1811854243312392e-06 5.2081761275176712e-05  9.6186880771531057e-05 1.2523235719726749e-05 3.6302634565435495e-05  -6.4680162549015464e-05 -6.0027513596352296e-05 4.1518464144335799e-06  -2.7388335612753005e-05 6.1413062988711906e-05 -7.4729353254279382e-06  -1.6256204977257871e-04 3.6035420938122639e-05 -2.9563245447727106e-05  -2.6702646733545393e-04 -1.6944640178191547e-05 -6.4502515283450374e-06  -1.1395792217333500e-04 1.3872515347732360e-05 -4.6188229772671402e-05  2.2576143347399834e-04 2.6927624380021351e-05 -9.4831756072822414e-07  3.3897589405881040e-05 2.5813430908898622e-05 -3.5241227479379941e-05  -1.2032570041237230e-04 -2.7854506983482378e-05 3.7033108759695358e-05  2.3661238447619494e-04 -1.4195398111628969e-06 -2.7377047299781078e-05  -5.2554632187114160e-05 2.5770782833729375e-05 2.5983074237565532e-05  -6.2382132423658112e-05 -2.7870050544438514e-05 -4.8571041598581919e-05  -3.4151305016771151e-05 -3.5414412652634079e-05 -1.0268746170151338e-05  1.4950402484275349e-04 -3.4107070234071370e-05 2.6989700382343649e-05  -2.1971611342734329e-04 2.9965657149696152e-05 8.9113825161433193e-06  -1.4877216641944735e-05 -1.7209834329461609e-05 -5.0657625072674515e-05  -2.0893821197425842e-04 2.4338200176653759e-05 -2.7233011553152120e-05  2.6893716047691644e-04 -1.5773304022035465e-05 1.8322206495973798e-06  1.4047160062951911e-04 5.7069864115703239e-05 -4.4311983296599794e-08  7.7010248569565751e-05 4.3330450871667597e-05 1.0845560531909134e-05  -2.4745401593170705e-04 -3.1236877477160008e-05 -2.4272205516217196e-06  4.8561416923146368e-05 -4.2955367951049910e-06 -3.9024389793747929e-05  -5.1694119501691891e-05 -2.7720336646465210e-05 4.4894113276995403e-05  1.2137079860803184e-04 7.4102529573271618e-06 4.7095811840131872e-05  1.0991190468545593e-04 -4.9447959789585620e-05 -1.4116518490693412e-05  -2.5023306538611491e-04 2.6999359263607833e-05 -1.4986426597079619e-05  2.6816456597681277e-05 5.5077812801426074e-05 1.7369740668661611e-06  1.4586708486970517e-04 -9.4371976925908179e-06 3.4172786112520271e-05  1.2313964445895745e-04 -1.1914243884743701e-05 5.3900323389652184e-05  8.6648536002072223e-05 -4.9215323756089594e-05 -2.6716598762118364e-05  2.1408132692321156e-04 5.4670387137080717e-05 1.2103443369259417e-06  8.3504610300785032e-06 1.4643015560885337e-05 -1.7465653026183847e-06  1.2107106917517200e-04 3.1860456970069230e-05 -3.2549604208479356e-06  -1.9815063062994057e-04 -1.0306093216036853e-05 -1.8056376946301189e-06  8.8754763493903541e-05 -3.8309643724592682e-05 -1.8321980990806341e-05  -1.3511337438124659e-04 2.5932302389530762e-05 -1.4373083770454982e-05  6.7839980513692102e-05 -9.2808089725130378e-06 3.2314048723367954e-05  1.7068462613869666e-04 -8.3406523932180983e-06 -1.9015869878614995e-06  -3.6937645791618642e-05 -4.7101997320202675e-05 1.8347491336822989e-05  -1.2463986345063040e-04 2.3380220159983092e-05 1.8646148133530799e-05  9.4862571977684740e-05 9.7084432942723980e-06 -3.0836902442998721e-05  -1.0578705174293019e-04 -3.8212680526550015e-05 -3.1289546180598983e-05  3.8097181775118102e-05 2.7346151482958971e-05 2.2573769336309345e-05  -2.8241629467024877e-05 3.7147152884568770e-05 1.2579818684489935e-06  -7.9037277709727660e-05 -1.9730702468871337e-05 4.1604139799515826e-05  3.5818709990757655e-05 2.8288824991462675e-05 -2.6157708554615416e-05  -5.5438042537419835e-05 1.5846422890527830e-05 -4.0325066046041179e-05  1.0743874432307573e-04 -3.1857749328492034e-05 1.1842878528414065e-05  1.7217787356686815e-04 2.2711642426060875e-05 1.4123654278622063e-05  -1.6633889861745790e-04 1.1051569873209105e-06 -2.5925167478578782e-05  2.3235410347412225e-05 -2.9585244496113780e-05 -4.3529314393662684e-05  -4.3368483813104179e-05 -5.8821066215500820e-05 -1.5004668695282752e-05  -1.5326995998241798e-04 -3.7925663465253101e-05 2.4150569184691510e-05  -1.3608674851284114e-04 -4.5596805026208918e-05 -1.3149608607894783e-07  1.7889769786696004e-04 -1.7894003851042689e-05 -2.8107887435270858e-05  -2.3019256142140326e-04 1.8897030392433889e-05 3.1147609765910525e-06  3.5899175742188166e-05 -4.2542006242318355e-05 3.7983759965761564e-05  2.0776435267380410e-04 2.0109205071393782e-05 -1.6690872794509318e-05  -1.9698633946771914e-04 -6.8155808349576412e-06 2.3490083955676179e-05  -1.5909808228729643e-04 4.9493826669921992e-05 4.8798431733272462e-06  1.9239983352471699e-04 -1.5054179419434239e-05 2.3980626212819186e-05  -5.0091622682515500e-05 1.5695495082857592e-05 3.9027552567590890e-05  7.6319328057967279e-05 5.7898327109090168e-05 1.5268098010491619e-05  6.7315594692770467e-05 5.9900241676018471e-05 -1.4464263193042909e-05  -8.0949890770454767e-05 5.2780532686858646e-05 -2.1002534400270868e-05  1.6792397154280435e-04 -4.1294538189671405e-05 -4.2140516143428409e-06  -6.9786746572497629e-05 4.8907157446422393e-05 2.6929446856354998e-05  5.7411989500639164e-05 -5.7090079695794950e-05 3.8161746046389226e-06  1.1572617115726656e-04 2.2035421338922514e-05 3.9064794158779486e-05  -2.0701756690912898e-04 -3.2161075879818595e-05 -1.8143997232145306e-05  -2.8191177916290738e-05 -2.0468237436391445e-05 -1.5119300109139154e-05  -6.9652215072757228e-05 -9.1888909419333010e-06 1.9587021173910150e-05  </DataArray> 
</PointData> 
</Piece>
</UnstructuredGrid>
</VTKFile>