<?xml version="1.0"?>
<VTKFile type="UnstructuredGrid"  version="0.1"  >
<UnstructuredGrid>
<Piece  NumberOfPoints="201" NumberOfCells="657">
<Points>
<DataArray  type="Float64"  NumberOfComponents="3"  format="ascii">-0.06744903835511169 0.3685847776132868 5369.418937913762  -0.4211347441688246 0.5884315599694739 -5369.655304358622  305.8385573986676 0.7205302283329316 -5102.714419396749  579.3514232209913 0.8698969737596746 -4330.89990411899  792.6830367663905 0.09246399373016474 -3138.085798503358  926.8887001383408 -0.08239585992775443 -1645.975133763506  973.0038381109534 -0.1650928380775956 -0.1272959014049763  927.0339797322188 -0.1275726790886641 1645.995096575611  792.8218970181917 0.4207256674250157 3137.710770354016  579.7873787543285 0.4953048729420518 4331.009451252136  306.3117312830979 0.5223784711531455 5102.686915652735  387.8961852046647 -770.5933406844088 -4660.792707425352  385.3084373747458 598.7944445645055 4776.882217831412  929.0083776301923 -709.2791474039501 -789.263949017293  675.0443442064666 -758.2911612669893 3564.29606994779  847.8764452903351 712.1325476269371 2241.892299631613  844.2437140626777 711.7228706348742 -2281.354837381698  432.7518323930398 691.3650991580703 -4598.38293150859  149.6079674920055 -685.5402324290056 5104.299054545322  670.2684942738923 -698.9229777928805 -3640.221522975371  470.3490181457564 -1367.152323999748 -3766.967161526675  695.1737833353463 -1355.265562250835 -2588.171462951395  481.292585200665 -1934.201076602594 -2489.264583186588  674.5665165238378 -1829.462618127474 -1223.721338030385  427.4855026409779 -2316.706465556055 -1040.943412128415  605.2169272268326 -2084.815030675731 262.9183561851812  320.8502320617306 -2476.005467870981 475.1171165168632  463.0317683990232 -2144.810845395892 1802.317360147257  167.8447349885168 -2398.296651355672 1918.591145564683  296.4582931084386 -1941.446667396751 3171.618808768284  -11.45063600325999 -2084.036330272264 3178.98245721298  702.9223208484378 -1691.062614492088 1518.41246035212  670.5242677812804 699.2414089135382 3640.286233051734  681.6468785713013 1363.151200410916 2677.36176961503  821.5163726539979 1317.997833549888 1209.390496936414  110.7458025509836 -1534.509509507845 4256.035340449405  403.402591955072 -1350.369261569615 4008.908263188433  470.2619614368629 1288.198459514608 3883.989178045058  455.3350881546605 1901.393540248108 2717.895600911867  930.7361907944038 -691.654019667729 789.1517631446001  826.9549890518477 -1427.685920776966 91.32022458874722  849.3978351526629 -712.7305892629421 -2220.101851382184  149.2623926475319 686.5192587552151 -5104.63142448385  663.9011571488866 681.1090951090846 -3690.448312820152  676.4371062255902 1355.058449807678 -2731.529569691439  208.0041971602838 -2324.378205963453 -2161.145055860782  -145.7298140449336 -2427.756472225215 1816.30074978161  201.2666671315345 -1391.651743781 -4369.905164929052  815.8972537767423 1333.451969388401 -1250.021546304042  616.804369230415 1919.259794780432 -1507.145276910356  439.0712817965361 1850.653173389095 -2925.001798224022  348.8342650625778 2320.242421461597 -1627.153219472692  153.9454817301337 2162.487555008806 -2848.531640510113  45.40757248337836 2510.542165554281 -1477.44455934381  -158.1597390609705 2228.388930889068 -2629.095299131012  -261.4894590907992 2469.847487809246 -1113.719701406777  -457.6853145623602 2104.628075807123 -2012.434305900318  -50.36204216528699 2618.606641674626 98.47514820317045  -319.3366021880217 -2008.799445312454 2929.272878677919  -441.547026416945 -2241.539691277856 1448.259576060581  -537.0549634546283 2198.931863203381 -543.3782612497312  -703.442111233305 1720.051800509149 -1377.324693740622  -748.16068054696 1720.984560419696 123.1906803618379  -870.2612300369076 1136.518967042271 -859.7036691107107  -881.3289022986784 1079.304960217843 801.9032862799506  -775.7219814443724 1069.011748779111 -2451.750564936492  -719.3171116801378 1586.399149978104 1728.885403071675  -916.327603874574 470.7065409314305 -1560.816321904241  -815.6288671866483 881.1567268577747 2359.318513687439  -784.0588273287506 299.2344937542096 -3147.627076542851  -877.2987350689689 -340.7458123982434 -2243.177085639218  -611.9483770188516 1316.628867005206 3210.009500629664  -137.2957085989214 -1056.342269813313 4826.038457176241  -597.8955678994847 -1728.239323727405 2385.207382225808  -706.3882331553324 -455.6321826469377 -3596.823150761212  -763.6191947132521 -1078.698024231795 -2544.978082748695  -936.3231940441558 299.3984454659834 1346.404559946863  -333.4964909386543 1723.797212432423 -3566.396469529818  -673.481053448961 560.6630714517928 3724.067177540946  214.6869503961158 1737.882704519397 3787.373795313311  -905.0472359498891 -892.5184805766698 -902.8753210025167  -574.4239397493805 180.9121662841479 -4337.083952652382  -449.1692037728685 991.7709035034603 4304.29684561439  -553.8937957931598 -1146.621715044376 -3746.458760439604  -581.646590287491 -1724.632552417019 -2509.168055602243  -491.9068261470097 1941.612136145657 2407.748615783224  -253.6174957139478 -2533.515400780164 344.1209495036495  -472.1268780477203 166.5935766302326 4695.303937830148  -693.6293827266128 -242.0021257978393 3754.000959977207  -337.2551858963195 -1712.110952900582 -3578.968296047362  -339.9507696375978 -2204.153688363718 -2214.617128461914  -289.6687947523765 -1072.690098399879 -4609.913539408539  506.9685200621519 2263.789660890566 -150.7424624605814  -676.2333864693379 -1866.684845447808 946.1196218952232  -807.3546644319348 -1260.073266110565 1654.069992333638  179.7161711011005 2258.857832965806 2483.080661988354  -64.75322549025134 2025.547850576722 3317.465532018492  -22.26617110490037 1512.544468306817 4329.496076630379  -268.5977965000487 635.8229307008822 4988.4212873078  -448.3723160953297 -1396.616875656285 3797.75792328755  235.169137767084 1698.522086479139 -3827.844131001573  -558.6028316723762 -2097.912528902056 -1165.9827427362  -73.9895949860598 1292.191712754345 -4611.807558763576  -163.2593469765629 551.0754140685848 -5165.458061954131  -111.9492468891578 2439.919393399961 1815.967934815026  -209.5580252271384 -390.1181147049831 5180.724813706363  -72.5802163550462 -2124.695283039052 -3045.754967426501  -451.6060652990781 -630.3896373344187 4581.09268536928  -693.4703807440384 -1031.828575072965 3148.61999116992  -856.8837220970231 -499.9554625126717 2360.305283210438  -934.9318565047097 -654.4773008137244 747.14252367088  -968.7212415752642 -85.3617367207254 -462.3575275593867  -381.4391410278001 1102.185515706011 -4380.398923284909  -576.5630724465327 1229.998052057802 -3528.222407056167  -85.67653231724638 -2459.206867149026 -1750.65807890377  -34.0757386783056 1907.337611323279 -3606.71945440307  399.6642218105814 2302.753118010538 1395.718270828965  844.2523537794947 -680.964894593965 2322.803043238458  49.39633926918548 -718.72822637801 -5141.445133106002  159.1425982080742 -2556.870162168004 -823.6894519126821  -303.5365407320434 1648.082899139458 3785.116043214698  932.7510945400146 664.2610228491086 -806.161672791881  634.7072521308904 1903.188141323201 1373.223346957433  745.1958609362034 1731.340415792478 -60.89293322278758  -753.7121846564519 -1563.203352851566 -1348.784960873998  -332.9222774381282 2467.353221087189 415.9477636223592  -554.5692220040304 2129.563366035224 976.8281171188941  -54.22636471840396 -1568.728323998124 -4233.261727720543  -231.4092599684752 -283.1267800181336 -5184.747193634162  -485.9521148746022 -458.2595982088305 -4567.177895286814  232.6092032554885 2548.895088700593 -273.2518274900773  27.39643098860476 -2604.568078242177 594.2672927597702  548.3959134518785 -1643.506262393912 2908.954815480536  934.371976819703 673.141322003486 715.4001856634983  433.2874431607161 -685.1433648535477 4600.687410287936  -831.4724449925412 -1407.042784685722 131.5348036202521  -178.5799724179764 -1698.434279590556 3911.768794115365  483.0690847452246 1248.413684863733 -3891.738868963579  -838.1315248607611 208.8651798773093 2717.579375538917  224.3993361482497 -1926.336454689852 -3367.220134245045  243.7974444914661 1230.099498688838 4516.385386004087  143.5557564823457 2532.792533589941 1123.992348763834  -616.8734065037684 1636.302166649943 -2507.967492196716  821.8602615863795 -1268.76026502956 -1393.468778398831  -15.12155552057679 662.1670744310467 5182.637838746633  746.375375635218 -1227.184695961472 2423.765602254852  -946.8154943169105 630.0446984909759 -121.084240907844  -516.6257021495643 -2250.245180429268 51.51070914985745  -317.2807778635114 -2450.346337400028 -886.0692835178232  879.4327075903682 1166.304900127736 -37.09038565189657  -222.09506240308 1261.962942937936 4510.50848388426  275.9987631567869 1145.280796696119 -4558.580157790178  -334.3178513112812 188.0255878681976 -5035.068447865923  -366.355207166602 2288.770314882642 1698.603314379787  835.1696098585362 -1179.957637795694 1465.843617672584  -68.65802521515467 -2602.821097403438 -537.0541673638296  -632.6155161487682 671.7182691111052 -3861.609984874504  -434.1099489828226 565.4606326399756 -4670.007802661628  -279.7777503330967 2090.928892968619 2805.511763202259  -697.1202256106876 -1866.928969023728 -298.590740747683  0.003742530306211195 0.05924366711941061 -0.1674344642797223  -311.6166662007944 -1038.474963069271 147.586056201699  468.8090912071657 405.2020505079003 -24.48178841501039  -187.9052198811955 1088.467554508291 1173.603763240975  350.6436540742742 -772.6783825961526 1067.293216950286  -228.4594600171033 112.086654584172 -2373.679669686723  -481.7110564239525 206.1314778887694 1.900364722901421  92.81281384113586 1231.074349316432 -1019.444158228738  326.6150297483209 -606.6727003377118 -1596.022672624988  -253.8524601441689 -114.5676066857343 2301.868622036153  244.4905570156572 913.5275078957203 1856.07459236887  -90.42735259944995 -1041.147409703107 -2017.149295733572  81.08239601494462 -1511.172231659511 9.77335416593942  194.285304911504 397.8703000871203 -2644.270
[...]
<PointData  Vectors="Forcing"> 
<DataArray  type="Float64"  Name="Forcing"  NumberOfComponents="3" format="ascii">-2.8232530283620248e-05 -2.8611345457047812e-06 -4.8032711351219062e-05  -2.2771596413320528e-05 -1.4882363588536976e-06 5.2495441663059720e-05  -7.0620029831885346e-05 4.3810897174295523e-07 4.9429043391992247e-05  -1.5826754771743482e-04 3.9274923021049104e-06 4.6201091632802109e-05  -1.4876590772758966e-04 -1.0299066714562137e-06 2.1624136337008328e-05  -2.5877023813958213e-04 7.5294368019793736e-06 1.7238035707892057e-05  -2.8104656567293760e-04 -1.1419166421970506e-06 2.7397801502262220e-06  -2.7811382456700406e-04 -8.2581376984326965e-06 -1.4642533263710001e-05  -1.6848271920840205e-04 1.8555744991512043e-06 -2.4873015827244436e-05  -1.5004895584331960e-04 5.4722469082825583e-07 -4.1779049722636701e-05  -6.9448792777932999e-05 8.8677286217118763e-06 -4.1268833424359811e-05  -9.5005093320986873e-05 1.4402731631221446e-05 4.4767140281902001e-05  -1.0408116130973427e-04 -1.5008780606398554e-05 -5.0404656602503841e-05  -2.3444819210892095e-04 9.4797277678596297e-06 5.7558208111742679e-06  -1.6246785941099326e-04 1.2570323303898603e-05 -3.7699644376262011e-05  -2.0773522731861797e-04 -1.0198347622345373e-05 -2.3879099639566772e-05  -2.1341971645758918e-04 -1.3360502565189645e-05 2.5240453093982640e-05  -1.0902745658430301e-04 -1.2029686328453925e-05 4.8139514278389203e-05  -4.0060488177408877e-05 1.3675840087522501e-05 -4.8483312088614849e-05  -1.7187865421391767e-04 1.6761909624289548e-05 3.7270018079666982e-05  -1.2515751811758601e-04 2.8827282137583750e-05 3.9461336214659006e-05  -1.8990359871096243e-04 3.2727147068445604e-05 2.6209721303186311e-05  -1.3099489260649208e-04 4.1456989316625018e-05 2.3096890119261333e-05  -1.5878033904335277e-04 2.7167380291377276e-05 9.0119983587955575e-06  -1.0314825490235986e-04 3.8330287222428811e-05 1.0836868108178900e-05  -1.4608862361280032e-04 3.5127421022669362e-05 -5.3702970430334278e-06  -9.6026058758427626e-05 4.6491440938286235e-05 -5.8776203119883730e-06  -1.1005437023581980e-04 3.9023906135808540e-05 -1.9069658034395711e-05  -3.5912000437992407e-05 3.7502386821304251e-05 -1.9122632280580761e-05  -5.2613882894375155e-05 1.5357344432010401e-05 -2.1290133648929015e-05  6.9711749726974881e-06 4.2934636644582822e-05 -3.1848848223473174e-05  -1.9072759744737981e-04 4.1196447819871107e-05 -1.7132285704878373e-05  -1.7187336988834046e-04 -1.4604236113045722e-05 -3.3405338698014564e-05  -1.5659369643580595e-04 -2.0059378510568750e-05 -2.3300200967387063e-05  -2.1011862961165824e-04 -1.7120887093232437e-05 -1.5383391648706279e-05  -2.3331273433344987e-05 3.3222680123188231e-05 -4.7471414880833227e-05  -9.9233689890338667e-05 2.5140174695270724e-05 -4.1717346159066208e-05  -1.3882125383336767e-04 -2.9053225024557423e-05 -3.8860981637396265e-05  -1.3284902910136548e-04 -3.7741492877770258e-05 -2.4241057487788537e-05  -2.2479973141573597e-04 8.0026236426954456e-07 -7.4765006100213289e-06  -2.1336145204038068e-04 2.5410540503623049e-05 -2.3461285227370823e-06  -2.2104156433751113e-04 7.8184674533751621e-06 2.3577719553800754e-05  -3.3639015776306850e-05 -2.1320224530669467e-05 5.7457286994221196e-05  -1.6286553940567778e-04 -1.0304532226622383e-05 3.4952867252154436e-05  -1.5916827790475810e-04 -1.9137456534940782e-05 2.4343585604225268e-05  -4.8200477605843749e-05 2.1172165796339548e-05 1.9478542922804156e-05  2.2823195362192235e-05 4.3631684700115829e-05 -1.9700661827642052e-05  -5.2286342695577584e-05 2.6542229404524773e-05 4.3295076247223878e-05  -2.3885793118617473e-04 -2.3877334743500526e-05 1.5323514717672268e-05  -1.5565503384383725e-04 -2.1105975373723390e-05 1.2990590678551265e-05  -1.0682707834576034e-04 -3.5372003127323168e-05 2.8875830992058755e-05  -1.2025785140612535e-04 -4.4002345421837417e-05 1.7681092531037522e-05  -3.7034754394111455e-05 -4.1731634070882710e-05 3.1427019860653177e-05  -1.5733213698151998e-05 -5.1869628646155647e-05 1.7761667768824196e-05  4.2629411649823008e-05 -4.3313797337448585e-05 2.4515122430184458e-05  5.4380185659696016e-05 -2.7328212682784778e-05 8.2128851828430709e-06  1.1692579503169980e-04 -4.3177864572561835e-05 2.2603831167188447e-05  1.0427752986623725e-05 -4.2381162805175448e-05 -1.7914350991790787e-06  7.7811246915482829e-05 3.3612670944449856e-05 -2.6222165028127008e-05  8.3770642567887888e-05 3.1131735125320681e-05 -1.3965633235149581e-05  1.3966541196363096e-04 -3.7080904498661419e-05 5.6755095863380262e-06  1.9995229248844952e-04 -3.0984324749012336e-05 1.4207609343110676e-05  1.4139309692274451e-04 -1.0746918687885883e-05 -3.2782380845108959e-06  2.4524738240871101e-04 -2.4091253983642806e-05 7.6414598219872680e-06  2.5471086053114505e-04 -2.0841587407460695e-05 -1.0140620846509480e-05  1.6774403416818242e-04 -5.2275401135004030e-06 2.0018222444612172e-05  1.9692914023212809e-04 -1.6068896514361564e-05 -1.6033418850773906e-05  2.4858354004194148e-04 -5.0596490996072533e-06 1.6165198945761888e-05  2.0781047509475366e-04 -1.1719069577316028e-05 -2.2911797633453124e-05  2.0847557027757303e-04 1.3070135123435653e-06 2.6761186833200082e-05  2.4686190313513365e-04 3.6242489055640382e-06 1.9974563714318377e-05  1.5690544868942076e-04 -2.3908425788216610e-05 -2.9433609293055138e-05  4.9337194883487805e-05 1.8200608917096228e-05 -4.3102612191736759e-05  1.4677558430540059e-04 3.2864958001444093e-05 -2.4272140371599585e-05  2.1034978701663429e-04 1.0766574511262910e-05 3.6609102598870102e-05  1.9061218868924860e-04 1.3194354505269684e-05 2.6135196930268411e-05  2.5574961924773148e-04 1.9469158091544607e-06 -1.1719541323508470e-05  9.4033575625041352e-05 -3.6193249152530181e-05 3.6106769581946051e-05  1.5107608988309274e-04 -9.9210651104402484e-06 -2.7107331387398554e-05  -6.8838583973805965e-05 -3.7672881487088781e-05 -4.1747176813042586e-05  2.4571768702725784e-04 1.1820383907456881e-05 7.1616974397043444e-06  1.7005255846662734e-04 2.0127197461258073e-06 4.3471490148487218e-05  1.3410356252943398e-04 -1.5780666032004855e-05 -4.4791939932942180e-05  1.2638010544023257e-04 1.6810472580089505e-05 3.7190933060687729e-05  1.4279666262203921e-04 2.7817058559511178e-05 2.9650890947654892e-05  1.4253118088507753e-04 -3.0109226745885146e-05 -2.1541980766957356e-05  7.1643243648669320e-05 3.9930491018024416e-05 -4.9042323848628760e-06  1.2643074673273345e-04 -3.0893080748675659e-06 -4.3026146242403215e-05  2.0292697373731374e-04 1.1777382453645137e-06 -3.6922831573686223e-05  8.4427335602757834e-05 3.6499940482214077e-05 3.7353486976679386e-05  7.1369097741501362e-05 2.3015968948499075e-05 1.8099928859380959e-05  6.0725380805089317e-05 1.6761726888172630e-05 4.4968585853772179e-05  -1.2372411100317190e-04 -2.8706096576398923e-05 -1.9010873182894157e-06  1.7719326873851874e-04 2.8593874384640527e-05 -1.2381599026318444e-05  1.7151775592979290e-04 4.8645014527513643e-06 -1.4061703022826738e-05  -5.7939456652238357e-05 -4.1614424926632419e-05 -2.7705426092440404e-05  7.7210704347678504e-06 -4.2016371191874877e-05 -3.5957996360317969e-05  1.5108345014734842e-07 -2.5226213352056388e-05 -4.5875881174681437e-05  7.9250927179513520e-05 -1.5968668100645608e-05 -5.7368358804441979e-05  1.3243864944896742e-04 2.8303684741000280e-05 -4.2132466979879674e-05  -7.1989565079216795e-05 -3.5697776167205866e-05 4.3391545037878577e-05  1.7200019458225776e-04 4.0064721690971803e-05 1.6487907409458564e-05  2.4248631950303409e-05 -2.2226135490771191e-05 4.1209534626540275e-05  4.5537237541320891e-05 -2.2160884738754364e-05 5.2812628862819852e-05  3.1472656556549938e-05 -5.4392365570450299e-05 -1.9465010582633918e-05  5.8901083112024205e-05 -2.7638736397785094e-06 -5.9270271101313361e-05  2.2098289087063448e-05 3.7468325216309172e-05 3.0583889498980577e-05  1.2574365243220919e-04 6.4935883464226964e-06 -4.5143434073701318e-05  1.5641690439220228e-04 5.2213534529052392e-06 -2.9784338312173965e-05  1.9690448774841194e-04 6.3490053414705110e-06 -1.9595266163688567e-05  2.0745238324728238e-04 8.6332179425357567e-06 -8.1020117821266469e-06  2.7178083591950127e-04 5.6877108295749549e-06 6.4284755686357938e-06  1.0495248134202561e-04 -2.1037388515634607e-05 4.6689551984149150e-05  1.5011891692886311e-04 -2.8022881666030684e-05 3.4503387608105549e-05  9.1253690312612274e-06 5.2185649945551063e-05 2.2723046222818774e-05  2.1918904356306160e-05 -3.4809478722309147e-05 3.8581686263809061e-05  -1.1233042957186525e-04 -4.8053539335469936e-05 -1.4590301279376124e-05  -2.4085894414866419e-04 1.1640424879418007e-05 -2.1166604627352905e-05  -1.6670101895451761e-07 1.0318125226700640e-05 4.6257381591207045e-05  -3.3655130774036052e-05 5.3655356237279544e-05 1.0480987946568452e-05  9.9886487046857067e-05 -2.9615606260153208e-05 -4.1352724523601772e-05  -2.6874398952743986e-04 -1.0312285385502748e-05 9.7308836781369277e-06  -1.5822523131503615e-04 -2.5681781722905202e-05 -1.2873508992375659e-05  -2.1343207998067949e-04 -3.6933964439378308e-05 -4.1076822205733438e-06  1.9486838406301393e-04 2.0158019433415850e-05 1.2300582784425430e-05  1.0579293726142309e-04 -4.7053803878525051e-05 -3.6404143522966198e-06  1.2779727842796715e-04 -1.3796767355646988e-05 -8.0191585501936080e-06  2.3270256794899322e-05 3.5421775732937235e-05 4.5854020793085771e-05  4.4632348925369293e-05 7.1861191259357778e-06 5.2106052263722801e-05  9.6191594947875661e-05 1.0775602396963615e-05 3.6397467436641224e-05  -6.5040395706662601e-05 -5.1716653126463094e-05 4.2414966879681293e-06  -2.7850821876170222e-05 5.4269840553395359e-05 -8.1466650693189982e-06  -1.6409070953325752e-04 2.9970451048843562e-05 -3.0307250406372693e-05  -2.6781793372347631e-04 -1.2824474698297808e-05 -6.3688026634659146e-06  -1.1380630225165140e-04 1.1734144519235996e-05 -4.6154405915374025e-05  2.2343774471117862e-04 1.9108870349992703e-05 -9.9944995148773549e-07  3.5146593741580788e-05 2.2976796517758151e-05 -3.7365822584936377e-05  -1.2110480535391676e-04 -2.3292135861405859e-05 3.7615452488386012e-05  2.3670376692656945e-04 -6.6256054775400580e-07 -2.7069420388834479e-05  -5.3311701647433478e-05 2.1674136795244856e-05 2.7504846440747567e-05  -6.2929593959985274e-05 -2.4079716356557380e-05 -4.9586557221993057e-05  -3.4164798452147037e-05 -2.9019679784250274e-05 -1.1074173100403145e-05  1.4938228602886556e-04 -2.6605944789112911e-05 2.7375908934390699e-05  -2.1894011403160988e-04 2.2841488689959058e-05 8.9198916784574270e-06  -1.4642002793030001e-05 -1.5351514854992728e-05 -5.1253402135303584e-05  -2.0618955329054233e-04 1.8028650118666174e-05 -2.7186432295745947e-05  2.6883313639957702e-04 -1.2001597295821397e-05 1.7228697422379722e-06  1.4023592615902106e-04 4.7363278288740116e-05 -1.4170491632732707e-07  7.6851367115101488e-05 3.5086979430120783e-05 1.1397717723283261e-05  -2.4762447038657897e-04 -2.4097983412802780e-05 -2.4759746529478007e-06  4.9456574827090098e-05 -2.3137922453288092e-06 -3.9864857007177907e-05  -5.2276038541982789e-05 -2.4637448174825120e-05 4.5944672562922787e-05  1.2046352940017064e-04 7.4122446035643883e-06 4.6650770276636721e-05  1.1001161541143693e-04 -4.1574531351986890e-05 -1.4910956646090201e-05  -2.4956842519382766e-04 2.0301036714264737e-05 -1.4884489240455496e-05  2.6655945286319484e-05 4.7694626766201305e-05 2.0604578213477636e-06  1.4578592695663472e-04 -6.9874139523350219e-06 3.4039682093144489e-05  1.2391271656630705e-04 -1.0222740534583707e-05 5.3999759020248498e-05  8.8782960862767639e-05 -4.4276538640116797e-05 -2.8494643709578271e-05  2.1354900347187120e-04 4.4396351593821447e-05 1.2123567993117455e-06  8.2257572452774150e-06 1.3489646025686992e-05 -1.7694587118471592e-06  1.2067639291186745e-04 2.6199277519747780e-05 -3.2780498075420110e-06  -1.9818326289702874e-04 -7.8259766942990141e-06 -1.7666042834717007e-06  8.8852284931060133e-05 -3.3600365074057495e-05 -1.9037901236763763e-05  -1.3501010540129888e-04 2.1466045129047788e-05 -1.4493216013205651e-05  6.7957710705631119e-05 -8.2304874046343657e-06 3.2340615867516387e-05  1.7066854608041007e-04 -6.7726690744760357e-06 -1.9305361660822868e-06  -3.6667179787552826e-05 -4.1803600590763780e-05 1.9087136077592203e-05  -1.2427147813475481e-04 1.9721274222243704e-05 1.8644335214382321e-05  9.4803053399869603e-05 8.7247968982993324e-06 -3.0881843946692761e-05  -1.0581068333130771e-04 -3.3867557586057688e-05 -3.1991368707052776e-05  3.7826010425260393e-05 2.2845400260527026e-05 2.2934939655421944e-05  -2.8067232422583740e-05 3.1013396458886414e-05 1.3561406007541983e-06  -7.9024474501096680e-05 -1.7525848704814278e-05 4.1789551571260815e-05  3.5645427004172982e-05 2.3783581733345668e-05 -2.6814580776746107e-05  -5.5444160649960504e-05 1.4626822436686705e-05 -4.0578124633870800e-05  1.0693750438029512e-04 -2.6298791897729036e-05 1.2140759008028987e-05  1.7194344227556047e-04 1.8967776585847654e-05 1.4178885988795861e-05  -1.6595073658466516e-04 1.0493233591506630e-06 -2.5701730224552053e-05  2.3050695876638676e-05 -2.6541506450412910e-05 -4.4225561267784261e-05  -4.3845503964846388e-05 -5.2569344764414789e-05 -1.5747890254294352e-05  -1.5307679821378620e-04 -3.2378948252981549e-05 2.4453986009255161e-05  -1.3561901398749941e-04 -3.8333958285589194e-05 -1.4142801321135747e-07  1.7874794575902897e-04 -1.4548273839074275e-05 -2.8052947698091120e-05  -2.2996875108908954e-04 1.5173880779235609e-05 3.1424885086069929e-06  3.6085306728990525e-05 -3.8466464726173390e-05 3.9211382193324990e-05  2.0750033735343992e-04 1.6465541080948454e-05 -1.6724101726386115e-05  -1.9693948711419298e-04 -5.7950167578434594e-06 2.3310868137315127e-05  -1.5859512710354197e-04 4.1698107796674859e-05 4.9711046120699276e-06  1.9217982625200676e-04 -1.2229433539004229e-05 2.3882510509221427e-05  -5.0054341932658212e-05 1.3605278804294873e-05 3.9260175276975666e-05  7.6721824920695635e-05 5.0873347344566628e-05 1.6031743351478661e-05  6.7539536237689810e-05 5.2602862714687939e-05 -1.5277713898895074e-05  -8.0931668481898771e-05 4.6255186038227267e-05 -2.1966827485349955e-05  1.6754190238469862e-04 -3.3941906897955278e-05 -4.3265675665255235e-06  -7.0104634782468768e-05 4.3178093480594866e-05 2.8075267054105746e-05  5.7416158536177364e-05 -5.0420279061683804e-05 4.0015825798178522e-06  1.1585828084055517e-04 1.8959859143376016e-05 3.9265560061571018e-05  -2.0679165692231950e-04 -2.6535655545330909e-05 -1.8180071815568163e-05  -2.8053386664102209e-05 -1.7009533630598622e-05 -1.5177101654628443e-05  -6.9789013781087225e-05 -7.4483429320901199e-06 1.9700166679515904e-05  </DataArray> 
</PointData> 
</Piece>
</UnstructuredGrid>
</VTKFile>