<?xml version="1.0"?>
<VTKFile type="UnstructuredGrid"  version="0.1"  >
<UnstructuredGrid>
<Piece  NumberOfPoints="201" NumberOfCells="657">
<Points>
<DataArray  type="Float64"  NumberOfComponents="3"  format="ascii">-8.348011146774295e-05 0.0003133578076552688 5499.872870187764  -0.000407221998080524 0.0005715351824881638 -5499.87310325304  309.0139944485506 0.0006928694067040929 -5230.68609430108  587.7773229602498 0.0008247870198969714 -4449.477761169121  809.0016799475458 9.766881248024153e-05 -3232.726422286659  951.0339175280716 -6.832864592906637e-05 -1699.541075622559  999.9747868154276 -0.0001475631688062505 -0.0001260700604694331  951.0340457101986 -0.0001330124695701908 1699.541090240417  809.0017995426127 0.0003677840867340533 3232.726055159324  587.7777234883229 0.0004339760675490947 4449.477880084906  309.0144336879998 0.0004614707129067338 5230.68606841495  391.4931890512385 -753.6314773614243 -4781.595572489995  388.9428394847483 585.397933061157 4900.415381034541  951.8275272417933 -670.8930352186267 -815.3048172479865  685.3127735711017 -732.0763423305489 3667.163113301524  865.7401043634326 678.5533551826389 2312.56297479393  862.1406387140419 678.545213218278 -2352.898192166926  437.1485838538757 674.5587833651925 -4718.665258598702  150.6315796479906 -674.5533850686736 5230.687610619553  680.871350629351 -674.5656495580553 -3744.744975601145  473.9448923939941 -1323.521735611253 -3869.948629405775  704.1898350736574 -1297.268054346786 -2665.367651960308  482.8588265400007 -1854.424149842843 -2560.048099321783  680.3443679905134 -1740.372170961916 -1260.734470106806  426.902513815539 -2207.816647128855 -1070.898314339764  607.8542676621564 -1981.389846840179 270.8954770648454  319.2885218415622 -2358.814701274867 488.7459507900325  463.1210850709455 -2049.271306241197 1854.151259127448  166.8301160062441 -2296.355047413729 1971.668787249979  296.3766245901884 -1873.107637578395 3257.634273290408  -11.51616005562056 -2012.030478905786 3263.915495986843  710.2242198301047 -1609.866921825632 1564.732330541297  680.8715704433978 674.5659269435341 3744.745035537241  689.8864928615676 1305.826387157215 2756.728257743597  835.4705897774775 1251.309512796625 1247.717441171071  110.8657749501114 -1494.986246796288 4365.829387455072  405.98019340396 -1310.974712758358 4116.485348036606  473.8946972549913 1248.038928734285 3989.650586586779  456.64045501466 1825.767055958804 2794.506825127392  953.6497268054883 -654.543485581061 815.2012061594532  840.822401680561 -1352.615729236397 94.40395271627052  867.6571332310424 -679.1586219209489 -2289.85533111186  150.6312691415162 674.5542870501565 -5230.687923334425  674.0942177335027 657.6435278817396 -3796.050404518674  684.6068489935565 1298.798761431267 -2812.052324221977  207.1727718113623 -2227.834529066298 -2220.637563359478  -144.9416291232367 -2323.633607889184 1866.55564875747  202.1918552722618 -1357.490097101812 -4482.600095234893  829.7617118105215 1266.228592717194 -1289.42037781247  620.5044856936182 1829.250749507404 -1552.022945906784  440.5897720696485 1780.286329463351 -3006.412104289575  347.8504691572508 2217.132960793163 -1673.259466853963  153.6761652685183 2081.896814453366 -2925.525150913793  44.98710218614816 2400.308103723288 -1518.383266820937  -157.5375795855137 2142.043245590834 -2700.544516050945  -259.9511515252963 2357.37338514065 -1145.128399052282  -458.1273696714566 2013.292544348028 -2069.860712263191  -49.99851243228548 2496.561533789204 101.4008594824834  -319.3807149194359 -1934.210566032039 3009.641463460261  -441.1579450286159 -2139.00311694322 1489.959952703073  -537.9031894854839 2092.220790311721 -559.3532539949846  -710.5420618303648 1636.586967201112 -1419.494245351581  -756.8679547240048 1632.956548529118 127.026856617418  -887.8278374562226 1077.390197246524 -887.3001321296774  -899.9965392729914 1022.655110373798 827.9028671149104  -788.732496877388 1021.169587985485 -2526.638222882696  -727.8318242314092 1511.06057594855 1781.763750741571  -939.2600421155634 446.627496232561 -1611.339869127865  -831.4224391664326 840.6782779138939 2432.668182337892  -799.5175857761068 286.715095526598 -3242.559991912104  -897.8045960242046 -324.3751338335404 -2314.371054802126  -618.5205749825407 1267.227969993345 3302.2219922617  -138.127120693171 -1035.837951522732 4947.599656727571  -602.4830056420758 -1654.162515489292 2454.958971676634  -718.4498427259675 -439.4108589764926 -3701.371512512892  -776.1955871987327 -1031.34388406228 -2622.272867160296  -960.8181072978458 283.446297751675 1390.610163403215  -334.2963808939206 1667.350045863631 -3662.528519165458  -684.1200410108389 541.1196674539682 3830.674814495783  215.0617286608031 1684.786068648839 3887.489378358012  -925.7650610053141 -844.8729187232809 -932.1406801173861  -582.0824293710385 175.5032078812656 -4455.372494726344  -453.4956858445372 964.2212295669455 4419.06290101644  -559.3449466336083 -1109.477137407709 -3850.642567339187  -585.6870219042206 -1651.953386042421 -2581.825861128428  -493.6006795535422 1860.234721479554 2476.31471845108  -252.033311010724 -2414.055317055194 353.8680017969541  -477.5976309911842 162.3487748294309 4818.829557396334  -705.6944893407003 -234.5501787916161 3862.357541447055  -338.0634268647615 -1656.675909260538 -3675.486297159313  -339.1874498186643 -2112.02275230117 -2276.354693087324  -291.3075119141146 -1049.055243257027 -4728.169539345977  507.0244505011662 2153.776861419178 -155.1529342852353  -681.8547657319689 -1774.2806638722 974.9457413117286  -821.0059617622393 -1198.274969095738 1705.942396296404  179.0841805903156 2169.170022146977 2551.00483853315  -64.64551299239483 1956.355413878336 3405.871081979057  -22.39474326205562 1474.124125341176 4440.366638383652  -270.8904559925542 622.8127028922671 5113.861316096995  -451.7628696893419 -1352.767688452863 3901.133596481493  235.7942067432375 1647.109721593149 -3929.037675638438  -560.5008023012755 -1997.292145993044 -1200.282568780537  -74.05118559219399 1263.56732042089 -4728.194063881389  -164.0905169468282 541.7711845347397 -5292.787939144228  -111.2718977097176 2335.256006532864 1866.261499334096  -211.2767136171888 -383.4612806090887 5309.11414685641  -72.26237328486368 -2048.634857528092 -3127.287836969424  -456.5041935367819 -616.2454456139021 4701.790379918204  -703.7618696055559 -992.0993954169846 3240.878190431415  -876.1406346858531 -476.8577439687681 2434.671586998513  -958.6234383015278 -619.057821284008 771.698502702534  -995.6740484476711 -80.52111719515702 -477.7488462205562  -384.0677668851794 1073.575297981325 -4495.406971017092  -582.5102555034581 1187.513046557674 -3627.653813015155  -85.04044777750697 -2353.011286979051 -1798.854891890885  -34.01757845525449 1847.130524820182 -3701.58886864398  398.7638916784246 2197.886432636743 1435.702314784021  861.8524777482837 -649.1532482677704 2395.833303868209  49.96576867860517 -707.917878253463 -5267.608102227798  158.0692774519161 -2438.492730589317 -846.7095881508295  -304.5087076828387 1596.881374919728 3886.239915936747  955.8955688594855 629.0173918764154 -832.6873105025403  638.9043598633406 1812.636327952175 1414.441594373569  753.703401097554 1642.847135982326 -62.85461656192324  -763.4746222796473 -1485.791790566908 -1390.427784217503  -331.3234269376093 2350.867079616452 427.9715769655163  -555.8588335449647 2027.373947406623 1005.764496522084  -54.23489116646228 -1528.379387167151 -4342.198593153906  -233.0230506752146 -278.9616247041239 -5313.138922520197  -491.2506293711257 -447.7146896345747 -4688.12017568191  231.023741502982 2429.130178448301 -280.8530167496829  27.07235960193705 -2483.719994318504 610.9100219656539  552.1882453992887 -1579.547802602839 2991.832597326318  957.5864074463459 637.0648953288569 739.0493961696716  437.394955266467 -669.7021074521394 4721.321517581894  -845.782567553128 -1332.405793065777 135.7881483467437  -178.9932627546885 -1649.384125124472 4014.18631026089  487.2203055116776 1209.945683049655 -3997.876310740634  -856.7707098208188 199.2655748148269 2802.012200818946  224.4894612212936 -1861.586305932523 -3457.307751198188  244.9419184723607 1200.464525612657 4632.425262184662  142.4602359098248 2418.233077814871 1155.385500372658  -621.9338664428201 1567.208258723191 -2581.074942820594  836.2853561085492 -1205.023730104781 -1437.275370694522  -15.30246275062855 650.2005183669394 5309.944134867508  757.4670715211466 -1172.784387040789 2497.309971253693  -970.8991690148458 595.817104918227 -125.0930130462391  -516.8880190718628 -2140.09868558536 53.03801582582202  -315.6623648734322 -2335.856234710807 -911.085211556394  897.1007294645592 1104.401014040464 -38.2655450965737  -223.2009724737718 1231.618040779118 4626.073042279058  277.7442614397742 1118.460301880983 -4675.576991783215  -337.1335622589667 183.6470410845427 -5162.097803048874  -365.6121402996224 2187.344136479381 1746.82842820451  850.5287051122972 -1120.758152093187 1512.406118218787  -68.115084208002 -2481.652321719631 -552.026086217815  -641.3123229517977 649.8989072221915 -3970.31974297121  -438.2959465933733 552.3079891705554 -4791.793351078602  -279.6334414587502 2011.230356555631 2882.289249449334  -703.1541183754921 -1772.159331738185 -307.6086990080945  1.143059005645599e-05 5.653788166374528e-05 -0.0001613027407713036  -318.8659503480895 -978.1858658405907 152.3451895724722  482.1625872926703 381.4728359323206 -25.14226585964683  -192.0825481812427 1028.171214856058 1211.636704947944  359.3939691512188 -728.857689052548 1102.310601873873  -234.1418028218199 106.6861656841396 -2448.922120400563  -495.9087393699264 194.1541762600172 2.025781954241196  94.7442753988903 1162.997661291186 -1052.10670189578  334.9408444642721 -573.1085830264535 -1647.647497596371  -260.53479207767 -108.8941275510956 2375.216617040291  249.8351270223655 865.3558907098326 1915.173477219447  -92.25687052552679 -987.5336167678895 -2080.385885241631  82.52102455698243 -1426.266297559128 10.17325083351702  198
[...]
<PointData  Vectors="Tidal Force"> 
<DataArray  type="Float64"  Name="Tidal Force"  NumberOfComponents="3" format="ascii">0.0000000000000000e+00 0.0000000000000000e+00 0.0000000000000000e+00  0.0000000000000000e+00 0.0000000000000000e+00 0.0000000000000000e+00  0.0000000000000000e+00 0.0000000000000000e+00 0.0000000000000000e+00  0.0000000000000000e+00 0.0000000000000000e+00 0.0000000000000000e+00  0.0000000000000000e+00 0.0000000000000000e+00 0.0000000000000000e+00  0.0000000000000000e+00 0.0000000000000000e+00 0.0000000000000000e+00  0.0000000000000000e+00 0.0000000000000000e+00 0.0000000000000000e+00  0.0000000000000000e+00 0.0000000000000000e+00 0.0000000000000000e+00  0.0000000000000000e+00 0.0000000000000000e+00 0.0000000000000000e+00  0.0000000000000000e+00 0.0000000000000000e+00 0.0000000000000000e+00  0.0000000000000000e+00 0.0000000000000000e+00 0.0000000000000000e+00  -6.9850244595699123e-23 -9.9437481405155504e-13 0.0000000000000000e+00  5.4257425806567002e-23 7.7239840761621471e-13 0.0000000000000000e+00  -6.2181652083835331e-23 -8.8520618769729272e-13 0.0000000000000000e+00  -6.7852685353204192e-23 -9.6593794011059882e-13 0.0000000000000000e+00  6.2891792593322574e-23 8.9531561309958170e-13 0.0000000000000000e+00  6.2890951692778484e-23 8.9530364219916460e-13 0.0000000000000000e+00  6.2520955453377197e-23 8.9003644601561557e-13 0.0000000000000000e+00  -6.2520955453377197e-23 -8.9003644601561557e-13 0.0000000000000000e+00  -6.2521375903649242e-23 -8.9004243146582417e-13 0.0000000000000000e+00  -1.2267057137240975e-22 -1.7463149528548486e-12 0.0000000000000000e+00  -1.2023658474753013e-22 -1.7116651815973879e-12 0.0000000000000000e+00  -1.7187670761060504e-22 -2.4468041616652019e-12 0.0000000000000000e+00  -1.6130574687080133e-22 -2.2963179725211224e-12 0.0000000000000000e+00  -2.0463062470360429e-22 -2.9130827038138801e-12 0.0000000000000000e+00  -1.8364469027492634e-22 -2.6143309275531042e-12 0.0000000000000000e+00  -2.1862615290923016e-22 -3.1123203849068312e-12 0.0000000000000000e+00  -1.8993672859610849e-22 -2.7039031899244806e-12 0.0000000000000000e+00  -2.1283697311341611e-22 -3.0299067209849143e-12 0.0000000000000000e+00  -1.7360896273143836e-22 -2.4714642165245451e-12 0.0000000000000000e+00  -1.8648483186260326e-22 -2.6547626437120515e-12 0.0000000000000000e+00  -1.4921023344455553e-22 -2.1241285409207377e-12 0.0000000000000000e+00  6.2521796353921287e-23 8.9004841691603267e-13 0.0000000000000000e+00  1.2103039486115471e-22 1.7229657115911842e-12 0.0000000000000000e+00  1.1597700304142276e-22 1.6510265855342797e-12 0.0000000000000000e+00  -1.3856233030496725e-22 -1.9725470143884885e-12 0.0000000000000000e+00  -1.2150760591992796e-22 -1.7297591975779207e-12 0.0000000000000000e+00  1.1567427884554898e-22 1.6467170613841033e-12 0.0000000000000000e+00  1.6922072324208461e-22 2.4089940726976116e-12 0.0000000000000000e+00  -6.0665928853106178e-23 -8.6362863969536738e-13 0.0000000000000000e+00  -1.2536691896704665e-22 -1.7846996450424623e-12 0.0000000000000000e+00  -6.2947712479504819e-23 -8.9611167797732268e-13 0.0000000000000000e+00  6.2520955453377197e-23 8.9003644601561557e-13 0.0000000000000000e+00  6.0953516839186271e-23 8.6772268763803506e-13 0.0000000000000000e+00  1.2037869693948197e-22 1.7136882637678875e-12 0.0000000000000000e+00  -2.0648649220441941e-22 -2.9395024810345455e-12 0.0000000000000000e+00  -2.1536556104950629e-22 -3.0659032185393054e-12 0.0000000000000000e+00  -1.2581890300949709e-22 -1.7911340040166840e-12 0.0000000000000000e+00  1.1735986398618508e-22 1.6707127312702942e-12 0.0000000000000000e+00  1.6954362905101667e-22 2.4135908984577998e-12 0.0000000000000000e+00  1.6500570926481424e-22 2.3489899343566127e-12 0.0000000000000000e+00  2.0549465001266072e-22 2.9253828039925090e-12 0.0000000000000000e+00  1.9296060695266995e-22 2.7469505478245768e-12 0.0000000000000000e+00  2.2247201154764335e-22 3.1670692979646980e-12 0.0000000000000000e+00  1.9853451620919601e-22 2.8262996612397015e-12 0.0000000000000000e+00  2.1849287017299131e-22 3.1104229971907118e-12 0.0000000000000000e+00  1.8660129658796027e-22 2.6564206134198277e-12 0.0000000000000000e+00  2.3139354587020695e-22 3.2940745659405242e-12 0.0000000000000000e+00  -1.7927200744563835e-22 -2.5520822453838882e-12 0.0000000000000000e+00  -1.9825281452692456e-22 -2.8222894095999538e-12 0.0000000000000000e+00  1.9391713132157671e-22 2.7605674470490929e-12 0.0000000000000000e+00  1.5168668554691190e-22 2.1593828426492648e-12 0.0000000000000000e+00  1.5134990487900231e-22 2.1545884970321934e-12 0.0000000000000000e+00  9.9857780511687888e-23 1.4215563954377990e-12 0.0000000000000000e+00  9.4784627529169745e-23 1.3493359532210915e-12 0.0000000000000000e+00  9.4647140290210407e-23 1.3473787110028864e-12 0.0000000000000000e+00  1.4005240606910152e-22 1.9937594499276902e-12 0.0000000000000000e+00  4.1395431534379630e-23 5.8929750028559127e-13 0.0000000000000000e+00  7.7918264866007499e-23 1.1092296181039670e-12 0.0000000000000000e+00  2.6574559444725661e-23 3.7831038043320095e-13 0.0000000000000000e+00  -3.0064717152987151e-23 -4.2799560261461066e-13 0.0000000000000000e+00  1.1745278349630746e-22 1.6720355157663901e-12 0.0000000000000000e+00  -9.6006035569466039e-23 -1.3667236860770118e-12 0.0000000000000000e+00  -1.5331593035109370e-22 -2.1825764622075062e-12 0.0000000000000000e+00  -4.0726915601825029e-23 -5.7978063445395156e-13 0.0000000000000000e+00  -9.5589789800139599e-23 -1.3607980903705192e-12 0.0000000000000000e+00  2.6270994348307784e-23 3.7398888538260733e-13 0.0000000000000000e+00  1.5453817929193411e-22 2.1999761659638437e-12 0.0000000000000000e+00  5.0153410701117004e-23 7.1397442813028041e-13 0.0000000000000000e+00  1.5615439013768247e-22 2.2229842365656194e-12 0.0000000000000000e+00  -7.8307181367650902e-23 -1.1147661595469021e-12 0.0000000000000000e+00  1.6266380124951291e-23 2.3156509766948309e-13 0.0000000000000000e+00  8.9368387124661296e-23 1.2722313836341838e-12 0.0000000000000000e+00  -1.0283162528587577e-22 -1.4638914847630744e-12 0.0000000000000000e+00  -1.5311075061833481e-22 -2.1796555625057199e-12 0.0000000000000000e+00  1.7241530440909715e-22 2.4544715233823908e-12 0.0000000000000000e+00  -2.2374639632221758e-22 -3.1852111975468996e-12 0.0000000000000000e+00  1.5047494786287266e-23 2.1421327751481415e-13 0.0000000000000000e+00  -2.1738960865914015e-23 -3.0947171758434018e-13 0.0000000000000000e+00  -1.5354843935153565e-22 -2.1858864161728500e-12 0.0000000000000000e+00  -1.9575239675906149e-22 -2.7866939372095376e-12 0.0000000000000000e+00  -9.7231648112482830e-23 -1.3841712734350182e-12 0.0000000000000000e+00  1.9962222106298138e-22 2.8417840209292939e-12 0.0000000000000000e+00  -1.6444903310462413e-22 -2.3410651982804550e-12 0.0000000000000000e+00  -1.1106193936119425e-22 -1.5810566725959977e-12 0.0000000000000000e+00  2.0104922928630863e-22 2.8620986389372091e-12 0.0000000000000000e+00  1.8132422522349936e-22 2.5812972278519595e-12 0.0000000000000000e+00  1.3662909995409551e-22 1.9450259143294447e-12 0.0000000000000000e+00  5.7725299650410010e-23 8.2176640093656978e-13 0.0000000000000000e+00  -1.2538079382602420e-22 -1.7848971648993454e-12 0.0000000000000000e+00  1.5266213017806074e-22 2.1732690871331668e-12 0.0000000000000000e+00  -1.8511836847845076e-22 -2.6353099305341715e-12 0.0000000000000000e+00  1.1711390057703763e-22 1.6672112428982758e-12 0.0000000000000000e+00  5.0214375990563806e-23 7.1484231841052429e-13 0.0000000000000000e+00  2.1644275464649052e-22 3.0812379419736831e-12 0.0000000000000000e+00  -3.5541081946398300e-23 -5.0595609158134495e-13 0.0000000000000000e+00  -1.8987744510774988e-22 -2.7030592414450711e-12 0.0000000000000000e+00  -5.7116067206214021e-23 -8.1309348358433955e-13 0.0000000000000000e+00  -9.1952894946933730e-23 -1.3090239460663156e-12 0.0000000000000000e+00  -4.4197732597572365e-23 -6.2919052592576674e-13 0.0000000000000000e+00  -5.7377166825155166e-23 -8.1681044816386683e-13 0.0000000000000000e+00  -7.4634127791048996e-24 -1.0624772665247608e-13 0.0000000000000000e+00  9.9504181832896435e-23 1.4165226318123847e-12 0.0000000000000000e+00  1.1006463131589896e-22 1.5668591847012495e-12 0.0000000000000000e+00  -2.1808839701128216e-22 -3.1046649940900594e-12 0.0000000000000000e+00  1.7120146447369769e-22 2.4371915286302248e-12 0.0000000000000000e+00  2.0371067950836564e-22 2.8999865387575105e-12 0.0000000000000000e+00  -6.0166854380186476e-23 -8.5652391029778480e-13 0.0000000000000000e+00  -6.5612946754010255e-23 -9.3405344684950151e-13 0.0000000000000000e+00  -2.2601136193773432e-22 -3.2174548178205115e-12 0.0000000000000000e+00  1.4800690476595721e-22 2.1069981824237860e-12 0.0000000000000000e+00  5.8300055172298152e-23 8.2994851137169653e-13 0.0000000000000000e+00  1.6800351970450882e-22 2.3916661943437772e-12 0.0000000000000000e+00  1.5226690692233662e-22 2.1676427639371029e-12 0.0000000000000000e+00  -1.3771007760352814e-22 -1.9604145068157000e-12 0.0000000000000000e+00  2.1788952403260397e-22 3.1018338761414015e-12 0.0000000000000000e+00  1.8790679468266595e-22 2.6750054363174638e-12 0.0000000000000000e+00  -1.4165726475750462e-22 -2.0166059133738342e-12 0.0000000000000000e+00  -2.5855589479525425e-23 -3.6807526057653181e-13 0.0000000000000000e+00  -4.1495919149398844e-23 -5.9072802288544153e-13 0.0000000000000000e+00  2.2514313212595746e-22 3.2050948631397972e-12 0.0000000000000000e+00  -2.3020325115004213e-22 -3.2771297564000386e-12 0.0000000000000000e+00  -1.4639994382619391e-22 -2.0841217917265993e-12 0.0000000000000000e+00  5.9045933954909389e-23 8.4056670004171470e-13 0.0000000000000000e+00  -6.2071494112559032e-23 -8.8363799974264516e-13 0.0000000000000000e+00  -1.2349381300507762e-22 -1.7580344643632452e-12 0.0000000000000000e+00  -1.5287277576435625e-22 -2.1762677976876646e-12 0.0000000000000000e+00  1.1214375791117097e-22 1.5964572359826699e-12 0.0000000000000000e+00  1.8468698649933065e-23 2.6291688586201702e-13 0.0000000000000000e+00  -1.7254059859016713e-22 -2.4562551875445473e-12 0.0000000000000000e+00  1.1126459639232087e-22 1.5839416595965324e-12 0.0000000000000000e+00  2.2413363102277279e-22 3.1907237971890001e-12 0.0000000000000000e+00  1.4525673953649833e-22 2.0678473526094745e-12 0.0000000000000000e+00  -1.1168756936600009e-22 -1.5899630225063624e-12 0.0000000000000000e+00  6.0263978393029324e-23 8.5790654929596646e-13 0.0000000000000000e+00  -1.0869900883229055e-22 -1.5474184424237867e-12 0.0000000000000000e+00  5.5223620531730827e-23 7.8615297219552798e-13 0.0000000000000000e+00  -1.9835414304248786e-22 -2.8237319031002212e-12 0.0000000000000000e+00  -2.1649783363212868e-22 -3.0820220359510072e-12 0.0000000000000000e+00  1.0236114143145526e-22 1.4571937659796751e-12 0.0000000000000000e+00  1.1415224886073913e-22 1.6250497316290493e-12 0.0000000000000000e+00  1.0366453727480072e-22 1.4757486616262683e-12 0.0000000000000000e+00  1.7021508813547564e-23 2.4231496624409000e-13 0.0000000000000000e+00  2.0273355307612857e-22 2.8860763524727741e-12 0.0000000000000000e+00  -1.0387728511245646e-22 -1.4787772994318091e-12 0.0000000000000000e+00  -2.3001110537571670e-22 -3.2743944056547184e-12 0.0000000000000000e+00  6.0235808224802173e-23 8.5750552413199167e-13 0.0000000000000000e+00  5.1190241071984706e-23 7.2873454834463486e-13 0.0000000000000000e+00  1.8641041216445098e-22 2.6537032190251332e-12 0.0000000000000000e+00  -1.6425184192703412e-22 -2.3382580221326316e-12 0.0000000000000000e+00  0.0000000000000000e+00 0.0000000000000000e+00 0.0000000000000000e+00  -9.0662953512293772e-23 -1.2906605848263970e-12 0.0000000000000000e+00  3.5356504276969701e-23 5.0332847893977903e-13 0.0000000000000000e+00  9.5295895059978797e-23 1.3566142606747228e-12 0.0000000000000000e+00  -6.7554165660050884e-23 -9.6168827046250815e-13 0.0000000000000000e+00  9.8881494979994946e-24 1.4076581800534800e-13 0.0000000000000000e+00  1.7995271643608230e-23 2.5617726892715768e-13 0.0000000000000000e+00  1.0779251804575739e-22 1.5345138117740915e-12 0.0000000000000000e+00  -5.3118426019591901e-23 -7.5618382300117571e-13 0.0000000000000000e+00  -1.0092488330214299e-23 -1.4367474680671713e-13 0.0000000000000000e+00  8.0205093895670692e-23 1.1417844817884251e-12 0.0000000000000000e+00  -9.1529081072710435e-23 -1.3029906122560686e-12 0.0000000000000000e+00  -1.3219334958400047e-22 -1.8818794146289421e-12 0.0000000000000000e+00  3.5105075014285648e-23 4.9974917971504914e-13 0.0000000000000000e+00  -1.0294430595878435e-22 -1.4654955854189736e-12 0.0000000000000000e+00  -1.2562213228217914e-23 -1.7883328133190694e-13 0.0000000000000000e+00  1.0071423771584747e-22 1.4337487575126733e-12 0.0000000000000000e+00  -4.8105817876248498e-23 -6.8482528561450342e-13 0.0000000000000000e+00  6.0376659065937889e-24 8.5951064995186541e-14 0.0000000000000000e+00  6.2454524310393781e-23 8.8909074488266020e-13 0.0000000000000000e+00  1.4147310753834807e-22 2.0139842861824769e-12 0.0000000000000000e+00  8.3694410703388097e-23 1.1914577330694176e-12 0.0000000000000000e+00  1.1752341914201133e-22 1.6730410714014312e-12 0.0000000000000000e+00  5.3181493560398934e-23 7.5708164053246248e-13 0.0000000000000000e+00  -4.4112801642618890e-23 -6.2798146498363387e-13 0.0000000000000000e+00  9.3016213684940404e-23 1.3241611496438106e-12 0.0000000000000000e+00  -4.8881969078447111e-23 -6.9587442669953917e-13 0.0000000000000000e+00  8.3728467175423907e-24 1.1919425545363126e-13 0.0000000000000000e+00  -1.1563938147296909e-22 -1.6462202690167912e-12 0.0000000000000000e+00  4.2684952518747537e-23 6.0765487607530140e-13 0.0000000000000000e+00  -4.5432174596302122e-23 -6.4676380773815299e-13 0.0000000000000000e+00  -1.4529920501397505e-22 -2.0684518830805408e-12 0.0000000000000000e+00  -1.5298419508644868e-22 -2.1778539419929376e-12 0.0000000000000000e+00  -1.3488465177537283e-22 -1.9201922814140528e-12 0.0000000000000000e+00  1.1516006816283559e-22 1.6393968557790118e-12 0.0000000000000000e+00  -1.3138944866384676e-22 -1.8704352338301400e-12 0.0000000000000000e+00  1.5502758340859673e-22 2.2069432300066291e-12 0.0000000000000000e+00  -5.8525416518115302e-23 -8.3315671268349453e-13 0.0000000000000000e+00  7.5260178246126851e-23 1.0713896018853340e-12 0.0000000000000000e+00  6.9507998074252931e-23 9.8950265758177219e-13 0.0000000000000000e+00  3.7428062767344880e-23 5.3281879211744502e-13 0.0000000000000000e+00  </DataArray> 
</PointData> 
</Piece>
</UnstructuredGrid>
</VTKFile>