<?xml version="1.0"?>
<VTKFile type="UnstructuredGrid"  version="0.1"  >
<UnstructuredGrid>
<Piece  NumberOfPoints="201" NumberOfCells="657">
<Points>
<DataArray  type="Float64"  NumberOfComponents="3"  format="ascii">-8.348011146774295e-05 0.0003133578076552688 5499.872870187764  -0.000407221998080524 0.0005715351824881638 -5499.87310325304  309.0139944485506 0.0006928694067040929 -5230.68609430108  587.7773229602498 0.0008247870198969714 -4449.477761169121  809.0016799475458 9.766881248024153e-05 -3232.726422286659  951.0339175280716 -6.832864592906637e-05 -1699.541075622559  999.9747868154276 -0.0001475631688062505 -0.0001260700604694331  951.0340457101986 -0.0001330124695701908 1699.541090240417  809.0017995426127 0.0003677840867340533 3232.726055159324  587.7777234883229 0.0004339760675490947 4449.477880084906  309.0144336879998 0.0004614707129067338 5230.68606841495  391.4931890512385 -753.6314773614243 -4781.595572489995  388.9428394847483 585.397933061157 4900.415381034541  951.8275272417933 -670.8930352186267 -815.3048172479865  685.3127735711017 -732.0763423305489 3667.163113301524  865.7401043634326 678.5533551826389 2312.56297479393  862.1406387140419 678.545213218278 -2352.898192166926  437.1485838538757 674.5587833651925 -4718.665258598702  150.6315796479906 -674.5533850686736 5230.687610619553  680.871350629351 -674.5656495580553 -3744.744975601145  473.9448923939941 -1323.521735611253 -3869.948629405775  704.1898350736574 -1297.268054346786 -2665.367651960308  482.8588265400007 -1854.424149842843 -2560.048099321783  680.3443679905134 -1740.372170961916 -1260.734470106806  426.902513815539 -2207.816647128855 -1070.898314339764  607.8542676621564 -1981.389846840179 270.8954770648454  319.2885218415622 -2358.814701274867 488.7459507900325  463.1210850709455 -2049.271306241197 1854.151259127448  166.8301160062441 -2296.355047413729 1971.668787249979  296.3766245901884 -1873.107637578395 3257.634273290408  -11.51616005562056 -2012.030478905786 3263.915495986843  710.2242198301047 -1609.866921825632 1564.732330541297  680.8715704433978 674.5659269435341 3744.745035537241  689.8864928615676 1305.826387157215 2756.728257743597  835.4705897774775 1251.309512796625 1247.717441171071  110.8657749501114 -1494.986246796288 4365.829387455072  405.98019340396 -1310.974712758358 4116.485348036606  473.8946972549913 1248.038928734285 3989.650586586779  456.64045501466 1825.767055958804 2794.506825127392  953.6497268054883 -654.543485581061 815.2012061594532  840.822401680561 -1352.615729236397 94.40395271627052  867.6571332310424 -679.1586219209489 -2289.85533111186  150.6312691415162 674.5542870501565 -5230.687923334425  674.0942177335027 657.6435278817396 -3796.050404518674  684.6068489935565 1298.798761431267 -2812.052324221977  207.1727718113623 -2227.834529066298 -2220.637563359478  -144.9416291232367 -2323.633607889184 1866.55564875747  202.1918552722618 -1357.490097101812 -4482.600095234893  829.7617118105215 1266.228592717194 -1289.42037781247  620.5044856936182 1829.250749507404 -1552.022945906784  440.5897720696485 1780.286329463351 -3006.412104289575  347.8504691572508 2217.132960793163 -1673.259466853963  153.6761652685183 2081.896814453366 -2925.525150913793  44.98710218614816 2400.308103723288 -1518.383266820937  -157.5375795855137 2142.043245590834 -2700.544516050945  -259.9511515252963 2357.37338514065 -1145.128399052282  -458.1273696714566 2013.292544348028 -2069.860712263191  -49.99851243228548 2496.561533789204 101.4008594824834  -319.3807149194359 -1934.210566032039 3009.641463460261  -441.1579450286159 -2139.00311694322 1489.959952703073  -537.9031894854839 2092.220790311721 -559.3532539949846  -710.5420618303648 1636.586967201112 -1419.494245351581  -756.8679547240048 1632.956548529118 127.026856617418  -887.8278374562226 1077.390197246524 -887.3001321296774  -899.9965392729914 1022.655110373798 827.9028671149104  -788.732496877388 1021.169587985485 -2526.638222882696  -727.8318242314092 1511.06057594855 1781.763750741571  -939.2600421155634 446.627496232561 -1611.339869127865  -831.4224391664326 840.6782779138939 2432.668182337892  -799.5175857761068 286.715095526598 -3242.559991912104  -897.8045960242046 -324.3751338335404 -2314.371054802126  -618.5205749825407 1267.227969993345 3302.2219922617  -138.127120693171 -1035.837951522732 4947.599656727571  -602.4830056420758 -1654.162515489292 2454.958971676634  -718.4498427259675 -439.4108589764926 -3701.371512512892  -776.1955871987327 -1031.34388406228 -2622.272867160296  -960.8181072978458 283.446297751675 1390.610163403215  -334.2963808939206 1667.350045863631 -3662.528519165458  -684.1200410108389 541.1196674539682 3830.674814495783  215.0617286608031 1684.786068648839 3887.489378358012  -925.7650610053141 -844.8729187232809 -932.1406801173861  -582.0824293710385 175.5032078812656 -4455.372494726344  -453.4956858445372 964.2212295669455 4419.06290101644  -559.3449466336083 -1109.477137407709 -3850.642567339187  -585.6870219042206 -1651.953386042421 -2581.825861128428  -493.6006795535422 1860.234721479554 2476.31471845108  -252.033311010724 -2414.055317055194 353.8680017969541  -477.5976309911842 162.3487748294309 4818.829557396334  -705.6944893407003 -234.5501787916161 3862.357541447055  -338.0634268647615 -1656.675909260538 -3675.486297159313  -339.1874498186643 -2112.02275230117 -2276.354693087324  -291.3075119141146 -1049.055243257027 -4728.169539345977  507.0244505011662 2153.776861419178 -155.1529342852353  -681.8547657319689 -1774.2806638722 974.9457413117286  -821.0059617622393 -1198.274969095738 1705.942396296404  179.0841805903156 2169.170022146977 2551.00483853315  -64.64551299239483 1956.355413878336 3405.871081979057  -22.39474326205562 1474.124125341176 4440.366638383652  -270.8904559925542 622.8127028922671 5113.861316096995  -451.7628696893419 -1352.767688452863 3901.133596481493  235.7942067432375 1647.109721593149 -3929.037675638438  -560.5008023012755 -1997.292145993044 -1200.282568780537  -74.05118559219399 1263.56732042089 -4728.194063881389  -164.0905169468282 541.7711845347397 -5292.787939144228  -111.2718977097176 2335.256006532864 1866.261499334096  -211.2767136171888 -383.4612806090887 5309.11414685641  -72.26237328486368 -2048.634857528092 -3127.287836969424  -456.5041935367819 -616.2454456139021 4701.790379918204  -703.7618696055559 -992.0993954169846 3240.878190431415  -876.1406346858531 -476.8577439687681 2434.671586998513  -958.6234383015278 -619.057821284008 771.698502702534  -995.6740484476711 -80.52111719515702 -477.7488462205562  -384.0677668851794 1073.575297981325 -4495.406971017092  -582.5102555034581 1187.513046557674 -3627.653813015155  -85.04044777750697 -2353.011286979051 -1798.854891890885  -34.01757845525449 1847.130524820182 -3701.58886864398  398.7638916784246 2197.886432636743 1435.702314784021  861.8524777482837 -649.1532482677704 2395.833303868209  49.96576867860517 -707.917878253463 -5267.608102227798  158.0692774519161 -2438.492730589317 -846.7095881508295  -304.5087076828387 1596.881374919728 3886.239915936747  955.8955688594855 629.0173918764154 -832.6873105025403  638.9043598633406 1812.636327952175 1414.441594373569  753.703401097554 1642.847135982326 -62.85461656192324  -763.4746222796473 -1485.791790566908 -1390.427784217503  -331.3234269376093 2350.867079616452 427.9715769655163  -555.8588335449647 2027.373947406623 1005.764496522084  -54.23489116646228 -1528.379387167151 -4342.198593153906  -233.0230506752146 -278.9616247041239 -5313.138922520197  -491.2506293711257 -447.7146896345747 -4688.12017568191  231.023741502982 2429.130178448301 -280.8530167496829  27.07235960193705 -2483.719994318504 610.9100219656539  552.1882453992887 -1579.547802602839 2991.832597326318  957.5864074463459 637.0648953288569 739.0493961696716  437.394955266467 -669.7021074521394 4721.321517581894  -845.782567553128 -1332.405793065777 135.7881483467437  -178.9932627546885 -1649.384125124472 4014.18631026089  487.2203055116776 1209.945683049655 -3997.876310740634  -856.7707098208188 199.2655748148269 2802.012200818946  224.4894612212936 -1861.586305932523 -3457.307751198188  244.9419184723607 1200.464525612657 4632.425262184662  142.4602359098248 2418.233077814871 1155.385500372658  -621.9338664428201 1567.208258723191 -2581.074942820594  836.2853561085492 -1205.023730104781 -1437.275370694522  -15.30246275062855 650.2005183669394 5309.944134867508  757.4670715211466 -1172.784387040789 2497.309971253693  -970.8991690148458 595.817104918227 -125.0930130462391  -516.8880190718628 -2140.09868558536 53.03801582582202  -315.6623648734322 -2335.856234710807 -911.085211556394  897.1007294645592 1104.401014040464 -38.2655450965737  -223.2009724737718 1231.618040779118 4626.073042279058  277.7442614397742 1118.460301880983 -4675.576991783215  -337.1335622589667 183.6470410845427 -5162.097803048874  -365.6121402996224 2187.344136479381 1746.82842820451  850.5287051122972 -1120.758152093187 1512.406118218787  -68.115084208002 -2481.652321719631 -552.026086217815  -641.3123229517977 649.8989072221915 -3970.31974297121  -438.2959465933733 552.3079891705554 -4791.793351078602  -279.6334414587502 2011.230356555631 2882.289249449334  -703.1541183754921 -1772.159331738185 -307.6086990080945  1.143059005645599e-05 5.653788166374528e-05 -0.0001613027407713036  -318.8659503480895 -978.1858658405907 152.3451895724722  482.1625872926703 381.4728359323206 -25.14226585964683  -192.0825481812427 1028.171214856058 1211.636704947944  359.3939691512188 -728.857689052548 1102.310601873873  -234.1418028218199 106.6861656841396 -2448.922120400563  -495.9087393699264 194.1541762600172 2.025781954241196  94.7442753988903 1162.997661291186 -1052.10670189578  334.9408444642721 -573.1085830264535 -1647.647497596371  -260.53479207767 -108.8941275510956 2375.216617040291  249.8351270223655 865.3558907098326 1915.173477219447  -92.25687052552679 -987.5336167678895 -2080.385885241631  82.52102455698243 -1426.266297559128 10.17325083351702  198
[...]
<PointData  Vectors="Coriolis"> 
<DataArray  type="Float64"  Name="Coriolis"  NumberOfComponents="3" format="ascii">3.0686624061816746e-15 8.1721393578932565e-16 0.0000000000000000e+00  5.5962013506768997e-15 3.9873574252242990e-15 0.0000000000000000e+00  6.7843064055428916e-15 2.9374553064979545e-14 0.0000000000000000e+00  8.0760919463902201e-15 7.7642308769978704e-14 0.0000000000000000e+00  9.5625801979072037e-16 1.4995594791028422e-13 0.0000000000000000e+00  -6.6914963474713429e-16 2.2128344710551865e-13 0.0000000000000000e+00  -1.4449855569445179e-15 2.4688371991310236e-13 0.0000000000000000e+00  -1.3023145544816871e-15 2.2002821640909768e-13 0.0000000000000000e+00  3.6015294366262069e-15 1.4878476725832499e-13 0.0000000000000000e+00  4.2497176069523002e-15 7.3720298749321288e-14 0.0000000000000000e+00  4.5189186579783348e-15 2.5073516431879824e-14 0.0000000000000000e+00  -1.5488601305425711e-13 3.2818565150643427e-14 0.0000000000000000e+00  1.2229908222721958e-13 3.3517376709560711e-14 0.0000000000000000e+00  -3.4379418054028321e-13 2.0907505632121814e-13 0.0000000000000000e+00  -2.3828655199646974e-13 9.4311783405641976e-14 0.0000000000000000e+00  3.0233323840209512e-13 1.6401514452548091e-13 0.0000000000000000e+00  2.9892264805376818e-13 1.6423056018531963e-13 0.0000000000000000e+00  1.5386541525672427e-13 4.0287418488878461e-14 0.0000000000000000e+00  -1.0100560104216718e-13 9.5410118062850430e-15 0.0000000000000000e+00  -2.2110003996731655e-13 9.7329446821967604e-14 0.0000000000000000e+00  -3.9830546272763618e-13 3.2336901209613848e-14 0.0000000000000000e+00  -5.2572945533933252e-13 8.2337562779133306e-14 0.0000000000000000e+00  -7.2699770930495372e-13 1.3433826879084576e-14 0.0000000000000000e+00  -8.0705439240700855e-13 5.2601157169405511e-14 0.0000000000000000e+00  -9.9143220316387275e-13 -6.0446117585751270e-15 0.0000000000000000e+00  -9.3822119877361861e-13 2.3784015833902254e-14 0.0000000000000000e+00  -1.0680073630506524e-12 -1.4902211359859180e-14 0.0000000000000000e+00  -8.7037721495003969e-13 -1.7768472685868234e-17 0.0000000000000000e+00  -9.3137353846208973e-13 -9.8150943116100374e-15 0.0000000000000000e+00  -6.2508647352364790e-13 -1.5272619912245738e-15 0.0000000000000000e+00  -6.5951669081244214e-13 -5.1573395291731765e-16 0.0000000000000000e+00  -7.3522885818335216e-13 6.6611717988615765e-14 0.0000000000000000e+00  2.2381637509186516e-13 9.5176868955447705e-14 0.0000000000000000e+00  5.1990194789756765e-13 7.5294216363729222e-14 0.0000000000000000e+00  6.0072004764123644e-13 1.2805640683956481e-13 0.0000000000000000e+00  -3.6261398497955385e-13 9.6541338303738095e-16 0.0000000000000000e+00  -3.6055287876627945e-13 2.3194705822144293e-14 0.0000000000000000e+00  3.6656210765767966e-13 3.2998403070670554e-14 0.0000000000000000e+00  6.8973584614609078e-13 1.1229221304395375e-14 0.0000000000000000e+00  -3.3250397990174455e-13 2.0993927070694309e-13 0.0000000000000000e+00  -6.7592508673663742e-13 1.2718130683795951e-13 0.0000000000000000e+00  -3.0228904208832927e-13 1.6741509672725307e-13 0.0000000000000000e+00  1.0983782424864530e-13 1.2581605796133373e-14 0.0000000000000000e+00  2.1343082716715111e-13 9.3578140512616178e-14 0.0000000000000000e+00  5.1069846578212055e-13 7.4523966182419389e-14 0.0000000000000000e+00  -8.8186636084978253e-13 -8.3221050857908772e-15 0.0000000000000000e+00  -9.5120569694314161e-13 7.6027612374900926e-15 0.0000000000000000e+00  -3.1307217014451593e-13 8.0797717628469931e-15 0.0000000000000000e+00  6.0577604903394504e-13 1.2715636602837624e-13 0.0000000000000000e+00  8.1714493330510873e-13 3.3412939698918823e-14 0.0000000000000000e+00  6.4227980424632365e-13 1.3091727773431725e-14 0.0000000000000000e+00  9.4055847259154057e-13 -9.7250793902159467e-15 0.0000000000000000e+00  7.3740701799397972e-13 -2.9326341378705723e-15 0.0000000000000000e+00  1.0068791031155799e-12 -4.0018356511184134e-15 0.0000000000000000e+00  7.8984769850063760e-13 6.1452674130492261e-15 0.0000000000000000e+00  1.0260978981046556e-12 1.4725433312681513e-14 0.0000000000000000e+00  8.3234548903751914e-13 -3.2941936552684491e-15 0.0000000000000000e+00  1.1136653500763290e-12 3.4526011677448986e-15 0.0000000000000000e+00  -6.8190621110374569e-13 4.8918691012704056e-16 0.0000000000000000e+00  -9.3396317281274989e-13 4.2982111885787944e-15 0.0000000000000000e+00  9.6960249811640418e-13 -7.3263016496793474e-15 0.0000000000000000e+00  7.5572278017548918e-13 -6.4924075140959316e-14 0.0000000000000000e+00  7.9499244598507981e-13 -7.9828632854073480e-14 0.0000000000000000e+00  5.3133776952456332e-13 -1.6109025630565922e-13 0.0000000000000000e+00  5.0880840828821021e-13 -1.7116614583522222e-13 0.0000000000000000e+00  4.3253208943594056e-13 -1.1928538100255440e-13 0.0000000000000000e+00  6.8183775503145599e-13 -7.7815024334195713e-14 0.0000000000000000e+00  2.1602346591153652e-13 -2.1027298443094791e-13 0.0000000000000000e+00  3.6492021678057116e-13 -1.4483036144533920e-13 0.0000000000000000e+00  1.1335179142854541e-13 -1.4214480193209010e-13 0.0000000000000000e+00  -1.4723897906500143e-13 -1.8827721898708485e-13 0.0000000000000000e+00  4.4914479701098668e-13 -5.9721053619947626e-14 0.0000000000000000e+00  -1.8846681476326249e-13 -7.3640410493672462e-15 0.0000000000000000e+00  -6.7356752222816221e-13 -4.1446959690057776e-14 0.0000000000000000e+00  -1.4703671125595254e-13 -1.1095223298111343e-13 0.0000000000000000e+00  -4.2814510276713967e-13 -1.1534048947127807e-13 0.0000000000000000e+00  1.4298025694884868e-13 -2.2451888378684661e-13 0.0000000000000000e+00  5.1668063321786675e-13 -6.5928411028542177e-15 0.0000000000000000e+00  1.7728223143525491e-13 -9.7648557244763186e-14 0.0000000000000000e+00  4.8607617262785441e-13 3.0582401171093428e-15 0.0000000000000000e+00  -4.2729499238641002e-13 -1.9001428776217528e-13 0.0000000000000000e+00  4.9456365481576033e-14 -7.0538727879611177e-14 0.0000000000000000e+00  2.5163093457097475e-13 -3.9358137855659668e-14 0.0000000000000000e+00  -3.3849541125163097e-13 -4.9608373781697082e-14 0.0000000000000000e+00  -6.6087879666794223e-13 -3.6505274758272362e-14 0.0000000000000000e+00  7.4124742868882297e-13 -1.4698465600506659e-14 0.0000000000000000e+00  -1.0891908679282120e-12 1.4970395391064680e-14 0.0000000000000000e+00  3.8499402975918626e-14 -5.0309990978438315e-14 0.0000000000000000e+00  -6.7825292494393154e-14 -1.1086025000321257e-13 0.0000000000000000e+00  -5.0700784276907471e-13 -6.6721064263749870e-15 0.0000000000000000e+00  -8.4075575088624548e-13 7.7961259539659831e-15 0.0000000000000000e+00  -2.1616441153295888e-13 -1.4724820102926007e-14 0.0000000000000000e+00  1.0000604766905166e-12 3.7554305772031288e-17 0.0000000000000000e+00  -8.3694137331014801e-13 -5.1366804236280086e-14 0.0000000000000000e+00  -5.5756913138497223e-13 -1.2509779175853910e-13 0.0000000000000000e+00  8.1966760142201264e-13 -6.1977148920736276e-15 0.0000000000000000e+00  6.3350894233837750e-13 1.3195401583026258e-15 0.0000000000000000e+00  3.5198440406667596e-13 -9.8986012220907071e-16 0.0000000000000000e+00  1.1889204974687035e-13 -2.0851168341837814e-14 0.0000000000000000e+00  -4.0082915373874892e-13 -3.0482297828725540e-14 0.0000000000000000e+00  4.7130243667814821e-13 5.1096733918617940e-15 0.0000000000000000e+00  -9.1406399724205517e-13 -1.7058080355544132e-14 0.0000000000000000e+00  2.6258414880766413e-13 -4.1926766039980061e-16 0.0000000000000000e+00  8.5507039245008714e-14 -7.5840505130686600e-15 0.0000000000000000e+00  9.5611516231696267e-13 6.6282882849288919e-15 0.0000000000000000e+00  -6.1408462135505780e-14 -1.5702138771282095e-14 0.0000000000000000e+00  -6.9598073310171766e-13 3.1085722317820036e-15 0.0000000000000000e+00  -1.2955025845341605e-13 -4.4855503487926941e-14 0.0000000000000000e+00  -3.6062103296261846e-13 -9.4201525991130498e-14 0.0000000000000000e+00  -2.0807881215539587e-13 -1.7670629991195812e-13 0.0000000000000000e+00  -3.1721163902965754e-13 -2.1713493951223059e-13 0.0000000000000000e+00  -4.3208092980758025e-14 -2.4678241101587740e-13 0.0000000000000000e+00  2.6209125834691140e-13 -2.3775096794780672e-14 0.0000000000000000e+00  3.8725006245148319e-13 -5.4136370471674186e-14 0.0000000000000000e+00  -9.6996568493868076e-13 5.9989979839179316e-15 0.0000000000000000e+00  5.5177120132866751e-13 5.9750428853014827e-16 0.0000000000000000e+00  9.5551694502009201e-13 -8.9199109008154929e-15 0.0000000000000000e+00  -2.8681646628814224e-13 1.6158239975788137e-13 0.0000000000000000e+00  -9.8665814316080542e-14 5.2355713167185530e-15 0.0000000000000000e+00  -1.0800777278063089e-12 -1.0259822861250763e-14 0.0000000000000000e+00  4.6860371953780024e-13 -8.1521286197677014e-15 0.0000000000000000e+00  3.1565535504214877e-13 2.1203114620721325e-13 0.0000000000000000e+00  8.2136830673409695e-13 3.8152658302955450e-14 0.0000000000000000e+00  7.9928369661118605e-13 7.8015540480020851e-14 0.0000000000000000e+00  -6.9954044884696205e-13 -8.9471009199187263e-14 0.0000000000000000e+00  1.0614735582791176e-12 1.5252891183118160e-14 0.0000000000000000e+00  9.2848289757984477e-13 -1.1273255714495718e-14 0.0000000000000000e+00  -3.6991568776245606e-13 2.0577686829104517e-17 0.0000000000000000e+00  -3.7874540351214529e-14 -1.4858985393437452e-14 0.0000000000000000e+00  -9.6061544669239258e-14 -4.8690442141835513e-14 0.0000000000000000e+00  1.0922067751018981e-12 -1.4963752494413524e-14 0.0000000000000000e+00  -1.1029134292256182e-12 -3.1174096980490195e-15 0.0000000000000000e+00  -5.8263983481258343e-13 3.4119303386250277e-14 0.0000000000000000e+00  3.2304295006522336e-13 2.1267211015475682e-13 0.0000000000000000e+00  -1.4145979969676853e-13 3.7719247113139168e-14 0.0000000000000000e+00  -6.7173915395278630e-13 -1.3136148043945396e-13 0.0000000000000000e+00  -4.4950009037045527e-13 -3.2242943663222328e-15 0.0000000000000000e+00  3.5156679932390052e-13 3.7555289874061464e-14 0.0000000000000000e+00  8.6331409117173362e-14 -1.7111561777059057e-13 0.0000000000000000e+00  -5.9238399073171622e-13 7.7106822885045500e-17 0.0000000000000000e+00  2.7135516936995824e-13 1.0309638264319956e-14 0.0000000000000000e+00  1.0456129904322165e-12 -1.0356537032903122e-14 0.0000000000000000e+00  6.2800071104691918e-13 -4.5853989842433809e-14 0.0000000000000000e+00  -5.7421736801346357e-13 1.3217963804166354e-13 0.0000000000000000e+00  1.0949771050864359e-13 -1.5059935044300330e-15 0.0000000000000000e+00  -4.9239236802303420e-13 1.0158602639809801e-13 0.0000000000000000e+00  3.0615302360956810e-13 -2.2061700026171876e-13 0.0000000000000000e+00  -1.0010689483393815e-12 -1.9669058452468521e-15 0.0000000000000000e+00  -1.0435690795097988e-12 1.5415362939338727e-14 0.0000000000000000e+00  5.5594599880805190e-13 1.6198552856765547e-13 0.0000000000000000e+00  2.7776801640587193e-13 -9.6516378512023695e-15 0.0000000000000000e+00  2.4590799429225154e-13 1.5661875078848900e-14 0.0000000000000000e+00  4.0352711563293839e-14 -2.5982774019561222e-14 0.0000000000000000e+00  9.2487805464650865e-13 7.6146357689009955e-15 0.0000000000000000e+00  -5.3322975728737082e-13 1.4080164832820155e-13 0.0000000000000000e+00  -1.1056474860895199e-12 5.0815391063862048e-15 0.0000000000000000e+00  1.9864922604062976e-13 -7.9842276904049653e-14 0.0000000000000000e+00  1.2042924868167304e-13 -3.8449385016388371e-14 0.0000000000000000e+00  7.2816556484768366e-13 2.1245149766674525e-15 0.0000000000000000e+00  -8.5749233732336337e-13 -5.5257856594453914e-14 0.0000000000000000e+00  5.5359357272008493e-16 -1.1185599254419627e-16 0.0000000000000000e+00  -5.4352564417553719e-13 -6.7078067120004415e-14 0.0000000000000000e+00  2.1318562729064219e-13 1.2315054048361042e-13 0.0000000000000000e+00  5.4459588306669306e-13 -3.8628325578668002e-14 0.0000000000000000e+00  -3.9496182340581582e-13 8.0872474431660317e-14 0.0000000000000000e+00  4.8994319510736804e-14 -5.2606172057430573e-14 0.0000000000000000e+00  1.0740929761631009e-13 -1.3088418935922874e-13 0.0000000000000000e+00  6.1534153463105456e-13 1.7852876522842983e-14 0.0000000000000000e+00  -3.0273961913903900e-13 7.6868422006388459e-14 0.0000000000000000e+00  -5.1441122114828019e-14 -6.1751789339593969e-14 0.0000000000000000e+00  4.3546737670509461e-13 4.9494347070888782e-14 0.0000000000000000e+00  -4.8551205075816141e-13 -1.7042444005734909e-14 0.0000000000000000e+00  -7.6806061151483961e-13 1.3308327927497150e-14 0.0000000000000000e+00  1.7326122934759810e-13 4.2854918023109724e-14 0.0000000000000000e+00  -5.4239750205439692e-13 -1.5090759745671160e-14 0.0000000000000000e+00  -5.6530585216173872e-14 3.6330143435980868e-14 0.0000000000000000e+00  5.7322748965928929e-13 -6.5494179180315976e-14 0.0000000000000000e+00  -2.7120083896697162e-13 -1.1497446125248311e-13 0.0000000000000000e+00  3.3585661773561658e-14 1.1928171089347136e-13 0.0000000000000000e+00  2.8738235727888968e-13 -1.2680964571152307e-14 0.0000000000000000e+00  7.9249116227452427e-13 1.3339509609034748e-14 0.0000000000000000e+00  4.5524426018992509e-13 8.6320925391729313e-14 0.0000000000000000e+00  6.7127167597401121e-13 7.4342973270636760e-14 0.0000000000000000e+00  2.9148370648152793e-13 -1.1052709161903031e-13 0.0000000000000000e+00  -2.6473641876707423e-13 1.4874325242277898e-13 0.0000000000000000e+00  4.4390243031346377e-13 -1.8185116124611521e-14 0.0000000000000000e+00  -2.7931012062531666e-13 -1.3865158691113144e-13 0.0000000000000000e+00  4.6181098842283389e-14 1.3661342124596218e-13 0.0000000000000000e+00  -6.6468534316144030e-13 7.5123949442759166e-14 0.0000000000000000e+00  2.3050401413646847e-13 -1.2361051020658941e-13 0.0000000000000000e+00  -1.9891129722821359e-13 2.4589185006874706e-14 0.0000000000000000e+00  -8.0421195552089853e-13 -2.3817326290509879e-14 0.0000000000000000e+00  -8.3764823685655826e-13 -2.0918025983965966e-14 0.0000000000000000e+00  -7.0977736127701369e-13 2.8136359342478471e-14 0.0000000000000000e+00  6.5073427666338937e-13 -8.6387601556267307e-14 0.0000000000000000e+00  -6.9361039826011630e-13 2.6161968298450590e-14 0.0000000000000000e+00  8.5943628113845148e-13 -1.4557595810400267e-14 0.0000000000000000e+00  -2.6525902458905417e-13 -5.8620348859491668e-14 0.0000000000000000e+00  4.1634826841682282e-13 1.2037682540083552e-13 0.0000000000000000e+00  4.2279477643245790e-13 1.6051957634409926e-14 0.0000000000000000e+00  2.2525888317640899e-13 5.2646870095019461e-14 0.0000000000000000e+00  </DataArray> 
</PointData> 
</Piece>
</UnstructuredGrid>
</VTKFile>