<?xml version="1.0"?>
<VTKFile type="UnstructuredGrid"  version="0.1"  >
<UnstructuredGrid>
<Piece  NumberOfPoints="201" NumberOfCells="657">
<Points>
<DataArray  type="Float64"  NumberOfComponents="3"  format="ascii">-8.348011146774295e-05 0.0003133578076552688 5499.872870187764  -0.000407221998080524 0.0005715351824881638 -5499.87310325304  309.0139944485506 0.0006928694067040929 -5230.68609430108  587.7773229602498 0.0008247870198969714 -4449.477761169121  809.0016799475458 9.766881248024153e-05 -3232.726422286659  951.0339175280716 -6.832864592906637e-05 -1699.541075622559  999.9747868154276 -0.0001475631688062505 -0.0001260700604694331  951.0340457101986 -0.0001330124695701908 1699.541090240417  809.0017995426127 0.0003677840867340533 3232.726055159324  587.7777234883229 0.0004339760675490947 4449.477880084906  309.0144336879998 0.0004614707129067338 5230.68606841495  391.4931890512385 -753.6314773614243 -4781.595572489995  388.9428394847483 585.397933061157 4900.415381034541  951.8275272417933 -670.8930352186267 -815.3048172479865  685.3127735711017 -732.0763423305489 3667.163113301524  865.7401043634326 678.5533551826389 2312.56297479393  862.1406387140419 678.545213218278 -2352.898192166926  437.1485838538757 674.5587833651925 -4718.665258598702  150.6315796479906 -674.5533850686736 5230.687610619553  680.871350629351 -674.5656495580553 -3744.744975601145  473.9448923939941 -1323.521735611253 -3869.948629405775  704.1898350736574 -1297.268054346786 -2665.367651960308  482.8588265400007 -1854.424149842843 -2560.048099321783  680.3443679905134 -1740.372170961916 -1260.734470106806  426.902513815539 -2207.816647128855 -1070.898314339764  607.8542676621564 -1981.389846840179 270.8954770648454  319.2885218415622 -2358.814701274867 488.7459507900325  463.1210850709455 -2049.271306241197 1854.151259127448  166.8301160062441 -2296.355047413729 1971.668787249979  296.3766245901884 -1873.107637578395 3257.634273290408  -11.51616005562056 -2012.030478905786 3263.915495986843  710.2242198301047 -1609.866921825632 1564.732330541297  680.8715704433978 674.5659269435341 3744.745035537241  689.8864928615676 1305.826387157215 2756.728257743597  835.4705897774775 1251.309512796625 1247.717441171071  110.8657749501114 -1494.986246796288 4365.829387455072  405.98019340396 -1310.974712758358 4116.485348036606  473.8946972549913 1248.038928734285 3989.650586586779  456.64045501466 1825.767055958804 2794.506825127392  953.6497268054883 -654.543485581061 815.2012061594532  840.822401680561 -1352.615729236397 94.40395271627052  867.6571332310424 -679.1586219209489 -2289.85533111186  150.6312691415162 674.5542870501565 -5230.687923334425  674.0942177335027 657.6435278817396 -3796.050404518674  684.6068489935565 1298.798761431267 -2812.052324221977  207.1727718113623 -2227.834529066298 -2220.637563359478  -144.9416291232367 -2323.633607889184 1866.55564875747  202.1918552722618 -1357.490097101812 -4482.600095234893  829.7617118105215 1266.228592717194 -1289.42037781247  620.5044856936182 1829.250749507404 -1552.022945906784  440.5897720696485 1780.286329463351 -3006.412104289575  347.8504691572508 2217.132960793163 -1673.259466853963  153.6761652685183 2081.896814453366 -2925.525150913793  44.98710218614816 2400.308103723288 -1518.383266820937  -157.5375795855137 2142.043245590834 -2700.544516050945  -259.9511515252963 2357.37338514065 -1145.128399052282  -458.1273696714566 2013.292544348028 -2069.860712263191  -49.99851243228548 2496.561533789204 101.4008594824834  -319.3807149194359 -1934.210566032039 3009.641463460261  -441.1579450286159 -2139.00311694322 1489.959952703073  -537.9031894854839 2092.220790311721 -559.3532539949846  -710.5420618303648 1636.586967201112 -1419.494245351581  -756.8679547240048 1632.956548529118 127.026856617418  -887.8278374562226 1077.390197246524 -887.3001321296774  -899.9965392729914 1022.655110373798 827.9028671149104  -788.732496877388 1021.169587985485 -2526.638222882696  -727.8318242314092 1511.06057594855 1781.763750741571  -939.2600421155634 446.627496232561 -1611.339869127865  -831.4224391664326 840.6782779138939 2432.668182337892  -799.5175857761068 286.715095526598 -3242.559991912104  -897.8045960242046 -324.3751338335404 -2314.371054802126  -618.5205749825407 1267.227969993345 3302.2219922617  -138.127120693171 -1035.837951522732 4947.599656727571  -602.4830056420758 -1654.162515489292 2454.958971676634  -718.4498427259675 -439.4108589764926 -3701.371512512892  -776.1955871987327 -1031.34388406228 -2622.272867160296  -960.8181072978458 283.446297751675 1390.610163403215  -334.2963808939206 1667.350045863631 -3662.528519165458  -684.1200410108389 541.1196674539682 3830.674814495783  215.0617286608031 1684.786068648839 3887.489378358012  -925.7650610053141 -844.8729187232809 -932.1406801173861  -582.0824293710385 175.5032078812656 -4455.372494726344  -453.4956858445372 964.2212295669455 4419.06290101644  -559.3449466336083 -1109.477137407709 -3850.642567339187  -585.6870219042206 -1651.953386042421 -2581.825861128428  -493.6006795535422 1860.234721479554 2476.31471845108  -252.033311010724 -2414.055317055194 353.8680017969541  -477.5976309911842 162.3487748294309 4818.829557396334  -705.6944893407003 -234.5501787916161 3862.357541447055  -338.0634268647615 -1656.675909260538 -3675.486297159313  -339.1874498186643 -2112.02275230117 -2276.354693087324  -291.3075119141146 -1049.055243257027 -4728.169539345977  507.0244505011662 2153.776861419178 -155.1529342852353  -681.8547657319689 -1774.2806638722 974.9457413117286  -821.0059617622393 -1198.274969095738 1705.942396296404  179.0841805903156 2169.170022146977 2551.00483853315  -64.64551299239483 1956.355413878336 3405.871081979057  -22.39474326205562 1474.124125341176 4440.366638383652  -270.8904559925542 622.8127028922671 5113.861316096995  -451.7628696893419 -1352.767688452863 3901.133596481493  235.7942067432375 1647.109721593149 -3929.037675638438  -560.5008023012755 -1997.292145993044 -1200.282568780537  -74.05118559219399 1263.56732042089 -4728.194063881389  -164.0905169468282 541.7711845347397 -5292.787939144228  -111.2718977097176 2335.256006532864 1866.261499334096  -211.2767136171888 -383.4612806090887 5309.11414685641  -72.26237328486368 -2048.634857528092 -3127.287836969424  -456.5041935367819 -616.2454456139021 4701.790379918204  -703.7618696055559 -992.0993954169846 3240.878190431415  -876.1406346858531 -476.8577439687681 2434.671586998513  -958.6234383015278 -619.057821284008 771.698502702534  -995.6740484476711 -80.52111719515702 -477.7488462205562  -384.0677668851794 1073.575297981325 -4495.406971017092  -582.5102555034581 1187.513046557674 -3627.653813015155  -85.04044777750697 -2353.011286979051 -1798.854891890885  -34.01757845525449 1847.130524820182 -3701.58886864398  398.7638916784246 2197.886432636743 1435.702314784021  861.8524777482837 -649.1532482677704 2395.833303868209  49.96576867860517 -707.917878253463 -5267.608102227798  158.0692774519161 -2438.492730589317 -846.7095881508295  -304.5087076828387 1596.881374919728 3886.239915936747  955.8955688594855 629.0173918764154 -832.6873105025403  638.9043598633406 1812.636327952175 1414.441594373569  753.703401097554 1642.847135982326 -62.85461656192324  -763.4746222796473 -1485.791790566908 -1390.427784217503  -331.3234269376093 2350.867079616452 427.9715769655163  -555.8588335449647 2027.373947406623 1005.764496522084  -54.23489116646228 -1528.379387167151 -4342.198593153906  -233.0230506752146 -278.9616247041239 -5313.138922520197  -491.2506293711257 -447.7146896345747 -4688.12017568191  231.023741502982 2429.130178448301 -280.8530167496829  27.07235960193705 -2483.719994318504 610.9100219656539  552.1882453992887 -1579.547802602839 2991.832597326318  957.5864074463459 637.0648953288569 739.0493961696716  437.394955266467 -669.7021074521394 4721.321517581894  -845.782567553128 -1332.405793065777 135.7881483467437  -178.9932627546885 -1649.384125124472 4014.18631026089  487.2203055116776 1209.945683049655 -3997.876310740634  -856.7707098208188 199.2655748148269 2802.012200818946  224.4894612212936 -1861.586305932523 -3457.307751198188  244.9419184723607 1200.464525612657 4632.425262184662  142.4602359098248 2418.233077814871 1155.385500372658  -621.9338664428201 1567.208258723191 -2581.074942820594  836.2853561085492 -1205.023730104781 -1437.275370694522  -15.30246275062855 650.2005183669394 5309.944134867508  757.4670715211466 -1172.784387040789 2497.309971253693  -970.8991690148458 595.817104918227 -125.0930130462391  -516.8880190718628 -2140.09868558536 53.03801582582202  -315.6623648734322 -2335.856234710807 -911.085211556394  897.1007294645592 1104.401014040464 -38.2655450965737  -223.2009724737718 1231.618040779118 4626.073042279058  277.7442614397742 1118.460301880983 -4675.576991783215  -337.1335622589667 183.6470410845427 -5162.097803048874  -365.6121402996224 2187.344136479381 1746.82842820451  850.5287051122972 -1120.758152093187 1512.406118218787  -68.115084208002 -2481.652321719631 -552.026086217815  -641.3123229517977 649.8989072221915 -3970.31974297121  -438.2959465933733 552.3079891705554 -4791.793351078602  -279.6334414587502 2011.230356555631 2882.289249449334  -703.1541183754921 -1772.159331738185 -307.6086990080945  1.143059005645599e-05 5.653788166374528e-05 -0.0001613027407713036  -318.8659503480895 -978.1858658405907 152.3451895724722  482.1625872926703 381.4728359323206 -25.14226585964683  -192.0825481812427 1028.171214856058 1211.636704947944  359.3939691512188 -728.857689052548 1102.310601873873  -234.1418028218199 106.6861656841396 -2448.922120400563  -495.9087393699264 194.1541762600172 2.025781954241196  94.7442753988903 1162.997661291186 -1052.10670189578  334.9408444642721 -573.1085830264535 -1647.647497596371  -260.53479207767 -108.8941275510956 2375.216617040291  249.8351270223655 865.3558907098326 1915.173477219447  -92.25687052552679 -987.5336167678895 -2080.385885241631  82.52102455698243 -1426.266297559128 10.17325083351702  198
[...]
<PointData  Vectors="Velocity"> 
<DataArray  type="Float64"  Name="Velocity"  NumberOfComponents="3" format="ascii">-3.7163343280719927e-12 1.3954944877117849e-11 -5.6607752421390806e-09  -1.8132771134375038e-11 2.5449095106375237e-11 5.6503976321304382e-09  -1.3358271936558622e-10 3.0852081281868471e-11 5.5545987097471078e-09  -3.5308352506651062e-10 3.6726561312307272e-11 5.1521800837794009e-09  -6.8193457319511191e-10 4.3486464806339462e-12 4.1172429759609290e-09  -1.0063010848146846e-09 -3.0430021384146500e-12 2.3329430275831404e-09  -1.1227200155317367e-09 -6.5711672171253122e-12 -5.6135116899895242e-12  -1.0005928403548477e-09 -5.9223614174736034e-12 -2.3322919425975229e-09  -6.7660855186247010e-10 1.6378192880166138e-11 -4.1335901471772578e-09  -3.3524792557109761e-10 1.9325871376545634e-11 -5.1468855551773959e-09  -1.1402347132709679e-10 2.0550080928255851e-11 -5.5557513405908879e-09  -1.4924459169871061e-10 -7.0435436990178841e-10 5.2482969828981885e-09  -1.5242248340303909e-10 5.5616315058201973e-10 -5.3656509763077493e-09  -9.5078262172852292e-10 -1.5634267331962775e-09 1.1357183641664099e-09  -4.2888906149481686e-10 -1.0836238268296646e-09 -4.4764073667503634e-09  -7.4586969799335386e-10 1.3748803615881478e-09 -3.0795280267535880e-09  -7.4684931492547042e-10 1.3593704768195281e-09 3.1174124922629346e-09  -1.8320969534769642e-10 6.9971313404585209e-10 5.2262268071487573e-09  -4.3388381088217385e-11 -4.5932963911689376e-10 -5.4870796865193544e-09  -4.4261208510246438e-10 -1.0054670287189512e-09 4.5472381859562789e-09  -1.4705419313140111e-10 -1.8113203877815878e-09 4.4867923591122927e-09  -3.7443550265970523e-10 -2.3907894066713564e-09 3.3692727433265454e-09  -6.1091214639485844e-11 -3.3060700792548280e-09 3.0995702835339810e-09  -2.3920723496049782e-10 -3.6701331309685095e-09 1.6220917440426769e-09  2.7488271025988946e-11 -4.5086033979551584e-09 1.3182066923574756e-09  -1.0815938223592596e-10 -4.2666228425124810e-09 -3.5046233028661135e-10  6.7768789991163141e-11 -4.8568339930090947e-09 -6.0097365597759533e-10  8.0803291276635888e-14 -3.9580978470487093e-09 -2.2758156709705348e-09  4.4634789367985051e-11 -4.2354826551814572e-09 -2.3352584044757101e-09  6.9453247281737895e-12 -2.8426220064024347e-09 -3.7612609607196852e-09  2.3453341980281634e-12 -2.9991956925977386e-09 -3.7174344971755379e-09  -3.0292118526203586e-10 -3.3435017721918046e-09 -2.0277001406287749e-09  -4.3282309514526635e-10 1.0178197420275094e-09 -4.5445693524462108e-09  -3.4240541983780501e-10 2.3642884318494809e-09 -3.4637961826056213e-09  -5.8234496437901842e-10 2.7318140760115798e-09 -1.6744665649724208e-09  -4.3902810989871589e-12 -1.6490110363941850e-09 -4.7813974361224513e-09  -1.0547945604331975e-10 -1.6396380198132592e-09 -4.6848751125903012e-09  -1.5006241652059912e-10 1.6669653849112141e-09 -4.6015448718247892e-09  -5.1065625243406263e-11 3.1366192965241524e-09 -3.3529605914704934e-09  -9.5471269370375257e-10 -1.5120838004195323e-09 -1.1358843960036208e-09  -5.7836538934734910e-10 -3.0738139563097322e-09 -1.3484266252715773e-10  -7.6133120509209445e-10 -1.3746793759336653e-09 3.0394124690997144e-09  -5.7215682992363972e-11 4.9949475724660650e-10 5.4731548850426259e-09  -4.2555277199955820e-10 9.7059077719880726e-10 4.5939381540487999e-09  -3.3890265628301718e-10 2.3224349893258705e-09 3.5138520071804803e-09  3.7845322298260531e-11 -4.0103454965364245e-09 2.6146198820409405e-09  -3.4574058657782243e-11 -4.3256707051861059e-09 -2.2120726815365651e-09  -3.6743295516705035e-11 -1.4237163626836360e-09 4.9046921459326779e-09  -5.7825196936810270e-10 2.7548065761449839e-09 1.7213129151080165e-09  -1.5194754921001870e-10 3.7160205318848587e-09 1.9675830922102893e-09  -5.9535496369715761e-11 2.9208098129588984e-09 3.5601229408880906e-09  4.4225440567168772e-11 4.2772517495187902e-09 2.0279102923361455e-09  1.3336347352374928e-11 3.3534070977487413e-09 3.3740967522124910e-09  1.8198611823553860e-11 4.5788491952939932e-09 1.8042692405989211e-09  -2.7946009265738413e-11 3.5918845544696733e-09 3.1342509197632985e-09  -6.6964880152423299e-11 4.6662479343223043e-09 1.3845327535653565e-09  1.4980563140461606e-11 3.7851460626203425e-09 2.5196087231177412e-09  -1.5700931749076780e-11 5.0644667033349802e-09 -1.2934384443610403e-10  -2.2246097655782687e-12 -3.1010135142691870e-09 -3.5178479461142855e-09  -1.9546399137295104e-11 -4.2472591883520527e-09 -1.8333230756229023e-09  3.3316840447160080e-11 4.4093313730609713e-09 7.0256273428798566e-10  2.9524651799479037e-10 3.4366992354532176e-09 1.8465706252146188e-09  3.6302597819179892e-10 3.6152806332854564e-09 -1.6789897913832566e-10  7.3256857571371195e-10 2.4162935856792612e-09 1.2046731456095260e-09  7.7838934855652892e-10 2.3138398280724614e-09 -1.1350803760362705e-09  5.4245814532188949e-10 1.9669682323656771e-09 3.2659736603230626e-09  3.5386896050632114e-10 3.1007022057409157e-09 -2.3128561778782972e-09  9.5623027889625230e-10 9.8238097304295992e-10 2.2013168833773203e-09  6.5862563035762740e-10 1.6594987777400444e-09 -3.1971316364360497e-09  6.4641287117221213e-10 5.1547475498186827e-10 4.1305829877137699e-09  8.5620308338451305e-10 -6.6957897797208554e-10 3.1003806590311478e-09  2.7158543411758143e-10 2.0425156168283997e-09 -4.0208747392909813e-09  3.3488462843364372e-11 -8.5706528268383349e-10 -5.2821762881053964e-09  1.8848278552162284e-10 -3.0630927760825897e-09 -3.0509787189231054e-09  5.0456260453894916e-10 -6.6865915176083321e-10 4.5473925966869418e-09  5.2451849064255076e-10 -1.9470181208553325e-09 3.3703256065537418e-09  1.0210144467265373e-09 6.5021215798872262e-10 -1.9261256775270584e-09  2.9981380179977969e-11 2.3496392906907278e-09 4.1964037476026524e-09  4.4406326081662094e-10 8.0620265157652238e-10 -4.6365754216044413e-09  -1.3907548842175635e-11 2.2104634856516475e-09 -4.3679627917245108e-09  8.6410251832002689e-10 -1.9431521877659530e-09 1.2766380384163340e-09  3.2077952199392490e-10 2.2490608712999135e-10 5.1395775031546363e-09  1.7898373031801600e-10 1.1443082875740805e-09 -4.9910259024512197e-09  2.2559735491696252e-10 -1.5393302300488321e-09 4.5362762265026116e-09  1.6601014704726455e-10 -3.0053899588850725e-09 3.1772583939621711e-09  6.6842242716791176e-11 3.3708716189144613e-09 -3.0026760649212834e-09  -6.8078861376666483e-11 -4.9531673799679547e-09 -4.3011456556283819e-10  2.2878800543221050e-10 1.7507857674849631e-10 -5.3645960896307623e-09  5.0414430586923822e-10 -3.0843999543379409e-10 -4.7110610293556791e-09  3.0341844471946819e-11 -2.3056516375218017e-09 4.2123026996015889e-09  -3.5453397465815176e-11 -3.8233922836168193e-09 2.7099979139459815e-09  6.6962091552140738e-11 -9.8302193256985774e-10 5.1402632089891036e-09  -1.7078069824904328e-13 4.5478410414519216e-09 1.9416457129607166e-10  2.3359393350651152e-10 -3.8060461497567114e-09 -1.2639754711525801e-09  5.6889046696829042e-10 -2.5355824355325792e-09 -2.2655440518679364e-09  2.8184517638274936e-11 3.7274925316975163e-09 -2.9809797795113811e-09  -6.0006959866442915e-12 2.8809237393796726e-09 -3.8669619073275185e-09  4.5014542540624165e-12 1.6006723154179525e-09 -4.8274729640007302e-09  9.4822064623821843e-11 5.4066944544697001e-10 -5.4469464333140806e-09  1.3862026181579227e-10 -1.8227970392782264e-09 -4.5041260534981971e-09  -2.3236577090473823e-11 2.1432789460727373e-09 4.4143180716259823e-09  7.7572746602760146e-11 -4.1567663736996307e-09 1.5064349129743449e-09  1.9066473680211134e-12 1.1941187524553930e-09 5.0617065684031184e-09  3.4488970408354849e-11 3.8884890612943343e-10 5.5274462330076237e-09  -3.0142578572659226e-11 4.3479968230905310e-09 -2.2139682164466971e-09  7.1406512713371642e-11 -2.7925903574449447e-10 -5.5724335509017926e-09  -1.4136437448555380e-11 -3.1650183322439500e-09 3.5706005936740439e-09  2.0398336346512295e-10 -5.8913835320381587e-10 -5.2434224693009692e-09  4.2838765862045570e-10 -1.6399479555113403e-09 -4.0193011971872471e-09  8.0358356497750233e-10 -9.4625213558741529e-10 -3.2389313643303198e-09  9.8743547265179684e-10 -1.4425408707071185e-09 -1.0705682308605645e-09  1.1222593066334446e-09 -1.9649165541409713e-10 6.7063885855427654e-10  1.0811882230731811e-10 1.1918773005440747e-09 5.0021578519178577e-09  2.4618871880333398e-10 1.7610452251563993e-09 4.3320055995367363e-09  -2.7280839381404164e-11 -4.4109829891189520e-09 2.1224913446488596e-09  -2.7171901968969658e-12 2.5092159658447010e-09 4.1443197070362108e-09  4.0563883701469903e-11 4.3452763904347272e-09 -1.7587949312904488e-09  -7.3480663055292562e-10 -1.3043168159944352e-09 -3.1822716630102976e-09  -2.3809106212715008e-11 -4.4868930449608321e-10 5.4769049277306298e-09  4.6657221809421687e-11 -4.9117247736175123e-09 1.0157730495339944e-09  3.7072343102666074e-11 2.1310063516982768e-09 -4.4107884330888674e-09  -9.6422563564552077e-10 1.4354635665301706e-09 1.1562970655350840e-09  -1.7350173247934787e-10 3.7352266013735469e-09 -1.8071303887518678e-09  -3.5478082092087269e-10 3.6347953788149988e-09 8.5824185718306014e-11  4.0687532120892383e-10 -3.1812063745899481e-09 1.8217143857171514e-09  -6.9363529639495524e-11 4.8271210844501341e-09 -5.3031553052985284e-10  5.1265874633044926e-11 4.2223372749169602e-09 -1.2715028871091955e-09  -9.3578386819724291e-14 -1.6822160118454939e-09 4.7449639559323621e-09  6.7572217067098138e-11 -1.7223697271340748e-10 5.5723698195308996e-09  2.2142300017989989e-10 -4.3684621634176232e-10 5.2535248549839396e-09  6.8048652366068842e-11 4.9668824169506989e-09 3.3580875528197133e-10  1.4176626411751019e-11 -5.0155716334289717e-09 -7.3512096618132062e-10  -1.5515978471014654e-10 -2.6495931145451057e-09 -3.6199209910681856e-09  -9.6714046151427820e-10 1.4690591426219324e-09 -1.0311158015181988e-09  -1.7153076647038232e-10 -6.4329777827353114e-10 -5.2409757783647273e-09  5.9737500477421882e-10 -3.0547781506213867e-09 -1.8584493679146524e-10  1.4662691498361805e-11 -2.0441313368543205e-09 -4.4660468390777915e-09  -1.7078516009994499e-10 1.5987732302867740e-09 4.6218897951938015e-09  7.7815956884313919e-10 3.9259778253297934e-10 -3.6751240605224675e-09  -3.5064836942480580e-13 -2.6939053068902255e-09 3.9373623838717438e-09  -4.6883760651676677e-11 1.2340055475127148e-09 -5.0472754566376601e-09  4.7097035889222220e-11 4.7549941050593601e-09 -1.3845772787120091e-09  2.0852404609315862e-10 2.8558746939275685e-09 3.1954338990380444e-09  -6.0109563048307988e-10 -2.6112913907053801e-09 1.9134385380382292e-09  6.8486048845884403e-12 4.9794806755034805e-10 -5.5267926993530419e-09  -4.6196916174971203e-10 -2.2391868012003050e-09 -3.2086951321455584e-09  1.0032703737950701e-09 1.3922510869973539e-09 1.7474026776742673e-10  8.9446341994707757e-12 -4.5524271328529013e-09 -6.7229246445550227e-11  -7.0102380677069510e-11 -4.7456992851987511e-09 1.1026984950141766e-09  -7.3663988543042380e-10 2.5282011329712058e-09 5.1322515446892929e-11  4.3891460327038637e-11 1.2631683927829639e-09 -5.0266932979346317e-09  -7.1223410915456686e-11 1.1182828388407742e-09 5.0874234508991086e-09  1.1815838023587903e-10 1.8350661991690946e-10 5.5143132637951768e-09  -3.4628058868110405e-11 4.2059440136929560e-09 -2.1204736837539967e-09  -6.4030479148615207e-10 -2.4248975249431473e-09 -2.0327732356414685e-09  -2.3108634566216443e-11 -5.0280049375172378e-09 6.6086124570356322e-10  3.6308802540305479e-10 9.0337047019874491e-10 4.7280807861417208e-09  1.7485111678880237e-10 5.4765995909759856e-10 5.2903818772270153e-09  -9.6613721127252812e-12 3.3113809794395943e-09 -3.3631917783817000e-09  2.5128875099299117e-10 -3.8995030153703159e-09 3.9574095465452138e-10  5.0867251109393476e-13 2.5175033207663414e-12 -7.1824989960246414e-12  3.0504193871444094e-10 -2.4717187502925488e-09 -2.0782775686320918e-10  -5.6003521322971990e-10 9.6947571455759805e-10 2.8984738820720110e-11  1.7566486080626024e-10 2.4765857323093454e-09 -1.6611794876179033e-09  -3.6777291666907674e-10 -1.7961149672052960e-09 -1.5277371628644482e-09  2.3923004048560262e-10 2.2280490257002300e-10 3.2774971994961327e-09  5.9520449206569117e-10 4.8845087204107969e-10 -5.2686333268404044e-12  -8.1187134632113865e-11 2.7983062534088333e-09 1.4273448043579939e-09  -3.4956422391624402e-10 -1.3767284048170600e-09 2.2513240162517495e-09  2.8082033886574278e-10 -2.3393189895022552e-10 -3.1955447745206391e-09  -2.2507881091768062e-10 1.9803166449996632e-09 -2.5786270436469143e-09  7.7501639258084461e-11 -2.2078981041930228e-09 2.7597200328590269e-09  -6.0520499865111237e-11 -3.4928063380021933e-09 -1.7376434866493679e-11  -1.9488556898529082e-10 7.8791687912294139e-10 3.5856864526786457e-09  6.8626226233004557e-11 -2.4665884495311166e-09 -2.7359514582603442e-09  -1.6521372578858660e-10 -2.5707656840977978e-10 -3.8173100259898278e-09  2.9783910374221958e-10 2.6067898535418685e-09 1.3993525769285018e-09  5.2285395314554228e-10 -1.2333037198024942e-09 2.1063892027780492e-09  -5.4244145525220510e-10 1.5273301422816952e-10 -2.6712185449505295e-09  5.7667523581357990e-11 1.3068902426323196e-09 -3.9522251778734573e-09  -6.0662300621688046e-11 3.6039058804816649e-09 -1.0510734949943550e-09  -3.9255010711619933e-10 2.0702533283148037e-09 2.2463342261450241e-09  -3.3807957906523646e-10 3.0526522636525156e-09 -2.0608582345317098e-10  5.0262924612156644e-10 1.3255413988952085e-09 -2.5293305983983651e-09  -6.7641976040071482e-10 -1.2039063421626720e-09 4.1360185916758118e-10  8.2698016158178325e-11 2.0186756081772351e-09 3.5119000151654771e-09  6.3052724523717080e-10 -1.2701812135186326e-09 -1.6620935623331023e-09  -6.2125855231466894e-10 2.1001159585131563e-10 2.4808141427210326e-09  -3.4163111976700665e-10 -3.0227004803587772e-09 6.2056822404595605e-10  5.6212695591596747e-10 1.0482322220992677e-09 2.5162336821626384e-09  -1.1182094219246135e-10 -9.0456225621630823e-10 4.2147557681980660e-09  1.0831086372637508e-10 -3.6572069615723534e-09 1.2090627677739915e-09  9.5126104170119514e-11 -3.8092606584023980e-09 -1.1303632523497943e-09  -1.2795195167236635e-10 -3.2277594097136140e-09 -2.2166496877690085e-09  3.9285332137899021e-10 2.9592570844143310e-09 -9.5818685793388031e-10  -1.1897327804798738e-10 -3.1542390780511121e-09 2.2708297504987895e-09  6.6201628040846280e-11 3.9083432282130284e-09 5.3656987780359934e-10  2.6657990654984645e-10 -1.2062829266488809e-09 3.9388087597565994e-09  -5.4742156077528256e-10 1.8933712378176703e-09 -1.9058310005672959e-09  -7.2997337090951288e-11 1.9226871586149533e-09 -6.1346224222100023e-10  -2.3941511749550583e-10 1.0243796427735099e-09 1.3608916375752022e-09  </DataArray> 
</PointData> 
</Piece>
</UnstructuredGrid>
</VTKFile>