<?xml version="1.0"?>
<VTKFile type="UnstructuredGrid"  version="0.1"  >
<UnstructuredGrid>
<Piece  NumberOfPoints="201" NumberOfCells="657">
<Points>
<DataArray  type="Float64"  NumberOfComponents="3"  format="ascii">-0.2904064758781372 -0.1334546696117645 899.1941413698128  -0.1464023475989398 -0.0199441355985498 -899.4671147264874  1824.539110808509 0.05229348393700797 -859.0719373088363  3461.901922258894 -0.0336765896927776 -738.4375302906091  4749.181970167182 -0.05228260828369937 -545.0354376239098  5568.38162053746 -0.08433620712786735 -289.4097860290689  5849.410551245769 -0.2413968417600329 0.09101083990874044  5568.461098713112 -0.2928179352669232 289.3497012049788  4749.163175324731 -0.1377961489317217 544.8364707294577  3461.804193229769 -0.07723836556678279 738.5298013854083  1824.566112936227 0.15340815449579 858.7236206482777  2308.073637872958 -1711.549725615554 -790.5725459813639  2294.277693721397 1329.830044732233 808.3876027608201  5569.15296822711 -1512.503167872254 -139.3316169481078  4027.541279798523 -1657.177300872092 615.1488766977734  5073.480990765362 1532.090535547435 392.7973423885032  5052.84799706891 1531.732417091052 -399.4186096770735  2576.64070052548 1531.612844089447 -780.7960566761891  889.3228414663974 -1534.240971163659 858.9867538687706  4002.013936348145 -1527.390847638504 -627.4451232135534  2786.58007137645 -2997.941853532622 -647.3962311862388  4129.689019251381 -2930.566374561107 -451.1526126563862  2830.800301909313 -4188.451956208086 -433.8710065714263  3981.911509584346 -3923.878266926396 -215.1749297170385  2498.23224000963 -4977.814721600163 -182.8080926470367  3555.81729024373 -4465.236619305552 46.35853417327269  1867.619401180438 -5316.985972678623 83.38953682831401  2712.120750708551 -4623.643313783227 315.6275340041399  977.1597984100541 -5182.495624430851 335.1388015099876  1739.970628873583 -4236.834786321901 548.6679811688507  -67.67705859666292 -4551.214060235359 549.6055087178139  4158.417442371865 -3630.950597152182 266.4957606875114  4002.412288210435 1527.15414019346 627.4275023918883  4046.542439253136 2950.197834683429 466.4994400688368  4889.936603403037 2821.204224585228 212.8395141565814  652.5716013669658 -3391.471914459671 725.0298094899415  2389.086899096223 -2971.742419541417 686.0213554190376  2787.222071182591 2827.635582850531 666.6148809108249  2678.334375064603 4125.468240124199 472.4132012436799  5580.008857203127 -1475.737493139512 139.3779963630451  4919.19752989026 -3048.498111752645 16.20976125866224  5084.98416573526 -1533.490346607089 -388.7688773302112  889.3297234647617 1534.311917103706 -858.6681509197025  3962.947649361349 1489.34383074492 -635.7700699598319  4015.632693542084 2934.567717160279 -475.6020244180908  1213.829461243889 -5029.629922392277 -376.9776551987298  -849.4991387227527 -5243.855324607835 317.5254082967699  1190.993563907059 -3080.270030431738 -743.5500207339721  4856.824988108829 2855.376645504924 -219.9716949810736  3632.781306783427 4125.460422856005 -264.5873022625644  2585.459567622622 4024.131083635441 -507.4161118647445  2036.907837936764 5001.619757232532 -284.8345426541427  901.7342800997779 4705.555156822335 -494.068786425539  263.1413290731736 5414.128188387881 -258.6175164435041  -923.9879809704632 4839.834160948813 -456.6272049065731  -1521.537744399837 5315.40393326954 -195.3979618466243  -2684.246659524577 4544.232853276484 -351.8898999322954  -292.8124774985295 5626.96364204156 17.42102606071371  -1874.384765199349 -4372.869294436236 507.7832024760765  -2582.77427080227 -4824.822553790022 253.8664160649897  -3147.449471128917 4716.169651316112 -95.6924452018775  -4159.376882352341 3691.456950132265 -242.1047562845939  -4427.311462996306 3680.495872429862 21.702055833329  -5195.29170346644 2428.617985775904 -151.5841372660138  -5266.076440368553 2305.179085448538 141.1778487508872  -4623.591812383888 2306.29276716681 -428.2923615150308  -4262.180793159188 3409.359481855065 303.4885310489444  -5498.627792893421 1007.944221314556 -274.656685057932  -4873.073654553421 1898.309618634434 412.5558786591712  -4693.308448449847 648.9741605304172 -546.5617399150946  -5260.41368798406 -732.54906855071 -392.8869271604273  -3631.939513182366 2866.435613284416 555.8716229735752  -814.9382608889704 -2353.80011600647 815.1426196263956  -3531.991178677104 -3736.058613158878 416.0013599268481  -4222.173588716189 -994.7831031872325 -620.5692619691924  -4550.811318187489 -2329.819928930851 -444.2051412017091  -5623.518297667869 639.8481976057425 237.1847136621109  -1964.634104796315 3774.699534372542 -614.2785713167306  -4021.946909722467 1225.673687064997 641.5344873039841  1264.826067375083 3816.364465871836 650.2583560370257  -5416.148190037445 -1904.740632426681 -159.4099603036684  -3427.941446764324 398.25788362114 -739.8410615499954  -2670.498301183517 2187.787451463815 733.9133439623351  -3288.451441716005 -2513.06546061836 -644.6127861575688  -3434.181680481623 -3731.531771229553 -437.1569147085016  -2893.601584340353 4201.791486140038 419.7097918582906  -1474.639611320366 -5441.483532920782 60.54845711902669  -2816.056539707863 368.6923244667778 795.7471035252962  -4149.071075001664 -531.0279849438945 646.3196372541728  -1986.846501882031 -3750.795777790119 -616.0458299059123  -1987.856631399378 -4768.629474509584 -386.4896320688508  -1717.391553817104 -2382.342986618884 -782.0727916122086  2966.55780040245 4853.774200611612 -26.51663358599735  -3990.491066214697 -4000.608270217103 166.3210725292485  -4807.227696808756 -2703.342112629501 290.6166354409059  1049.925065487744 4899.714161025441 432.047316274068  -380.0402084847184 4426.490996860748 572.2431226866646  -131.9560217299849 3344.196018069624 737.5258079925677  -1598.863883393976 1416.221059334979 841.3770543030375  -2656.448941047302 -3064.766809005339 652.411937696501  1386.730971800296 3731.7568911008 -656.6785873443011  -3280.667791412638 -4504.44090117634 -204.7507180255404  -436.3337437011405 2869.222666531439 -781.7244180479582  -969.123530166864 1232.415766550888 -868.418896504547  -651.9350488241827 5269.730508833436 317.3288835935883  -1247.769380037999 -872.9408727707372 870.3753053467473  -424.2198433783867 -4632.942321110479 -527.0819597001857  -2690.346614807833 -1399.085219526207 778.2752033406772  -4131.67731686063 -2244.184523129987 545.7288425492769  -5134.559835948437 -1076.794414896031 413.2987758351464  -5607.597789840863 -1395.52330598767 131.9509098086576  -5823.99160300922 -181.305984918299 -81.78752067004365  -2262.530190464324 2436.071840923044 -746.0690057488147  -3423.115380043178 2688.140518013009 -608.7087359445178  -498.6077038853152 -5309.669386382679 -306.0748458462786  -199.975743764221 4182.011682004759 -620.4813224410135  2334.402158468241 4956.632259518918 244.5977028568042  5051.60873802618 -1465.659927249403 406.3070403049704  294.616834716909 -1610.23064549044 -864.0973120295688  924.8661273664709 -5497.651622811138 -144.6128843283279  -1790.491285881858 3617.665325738833 649.8195319099093  5592.91996020692 1417.892958086 -142.3116643114565  3739.956730156304 4087.454415036051 241.3038506220384  4409.062737439957 3702.077793681009 -10.73279287019934  -4469.141987637757 -3350.977431314686 -236.9177262299895  -1938.517360222226 5299.156855448002 73.09805805838526  -3252.835812580422 4570.91502428104 171.658457869605  -319.3592194378715 -3466.92878907334 -721.5711546681051  -1376.247172804935 -634.4830763527326 -871.4470406562328  -2895.319830778682 -1016.12736807364 -775.8517504919537  1351.37074781923 5475.419847387196 -48.11272649202226  157.9159909506742 -5599.009550407684 104.3800837422281  3239.829458597455 -3570.595882209108 505.068968414454  5602.499599034057 1436.092786246284 126.2977807988374  2577.867855848825 -1520.502982591206 781.4584920832758  -4947.975155266238 -3003.096772932545 23.19476578898459  -1053.08542501765 -3737.785286491313 670.0906364892244  2865.72650037222 2741.45099383581 -667.6343558243937  -5024.543588067544 450.5835239520569 474.0421448379893  1318.443508981444 -4212.825746986441 -580.9525590015155  1443.497196353955 2725.30449780589 767.0923564203219  833.5103591914368 5452.760749788596 196.9937732166677  -3646.79840762915 3540.24081390808 -437.1680011195773  4895.924010739465 -2717.512957303878 -244.8940290882141  -90.48295970333899 1479.041716144526 870.1447409058792  4440.542777263291 -2648.992771435496 423.1582410907614  -5679.108605155274 1343.278534756031 -21.44568915210896  -3023.831348700982 -4824.213623061613 8.870525439132887  -1847.249004793359 -5266.332957365244 -155.6732084071262  5248.227284609959 2488.841075315836 -6.639466396971377  -1315.316801076587 2795.786961975876 766.277622813374  1637.150365295777 2538.924277474998 -774.1415529826024  -1990.040765499738 417.8423634390402 -848.5168564928548  -2141.331579072352 4935.199485083459 297.2860337767193  4979.501765671105 -2527.848801735963 257.7031349772052  -399.2194128111378 -5594.540655508989 -94.26986986837991  -3771.872697921449 1472.692462907776 -663.294060554117  -2583.787660458069 1254.307158127906 -792.2507943875702  -1640.657838259778 4545.477655673888 486.942537553417  -4113.77816078798 -3994.554128209641 -52.49246379997162  0.007345722423136833 0.05883632248871479 -0.02864028162934219  -1881.136424742389 -2223.116381125341 25.03440593313329  2844.283537969004 866.9637981295264 -4.164651231541853  -1133.813759520256 2337.556404134631 199.7905995800979  2120.997600214173 -1657.079302887464 181.7580824353324  -1384.335199101832 242.9278143059771 -401.1615787630935  -2925.516335992347 441.1047064263987 0.2765408584026123  559.3025535396064 2643.745408119668 -173.6504378445475  1977.801364546403 -1303.451435728558 -271.1297043596118  -1539.768294815052 -247.8337374106351 389.4782454664828  1475.01630470017 1967.577088176639 315.5319355874517  -544.6128208334839 -2245.964675537809 -342.4781104070138  486.3064799656427 -3238.846081397388 1.656675457381088  1175.576434053869 862.1839946354157 -446.83
[...]
<PointData  Vectors="Coriolis"> 
<DataArray  type="Float64"  Name="Coriolis"  NumberOfComponents="3" format="ascii">-7.6179838960215100e-11 1.7593728029166605e-10 0.0000000000000000e+00  -1.0906999461879657e-11 8.7253493214905261e-11 0.0000000000000000e+00  2.1512634038968870e-11 -2.8082540643476613e-08 0.0000000000000000e+00  -2.9307862750795582e-11 -4.8067232391198716e-08 0.0000000000000000e+00  -4.3407929402768304e-11 -5.6618238034665162e-08 0.0000000000000000e+00  -6.1044243458042776e-11 -5.7892460584132146e-08 0.0000000000000000e+00  -1.4665414540200537e-10 -5.7608436100443399e-08 0.0000000000000000e+00  -1.7772487224655682e-10 -5.7934849273761582e-08 0.0000000000000000e+00  -9.1735070705216821e-11 -5.6609828057428377e-08 0.0000000000000000e+00  -5.6137055579840891e-11 -4.8010740567255545e-08 0.0000000000000000e+00  8.4220747223477699e-11 -2.8099595764991368e-08 0.0000000000000000e+00  -2.2170356506830525e-08 -3.3405424710808870e-08 0.0000000000000000e+00  1.7437764941491403e-08 -3.3966993894300407e-08 0.0000000000000000e+00  -1.3151848153312430e-08 -5.5656134152613137e-08 0.0000000000000000e+00  -1.8280898313178167e-08 -5.0632195994411028e-08 0.0000000000000000e+00  1.4609177800301583e-08 -5.5360567713108131e-08 0.0000000000000000e+00  1.4435136741160049e-08 -5.5398944744415899e-08 0.0000000000000000e+00  1.9620394668319586e-08 -3.6949940866281490e-08 0.0000000000000000e+00  -2.1255648996921772e-08 -1.3649425449320385e-08 0.0000000000000000e+00  -1.7087627659681092e-08 -5.0668553427058251e-08 0.0000000000000000e+00  -3.4178765775754012e-08 -3.5772143700419088e-08 0.0000000000000000e+00  -2.8833650190869693e-08 -4.6749776497723389e-08 0.0000000000000000e+00  -4.0774995589492422e-08 -3.1527241238473526e-08 0.0000000000000000e+00  -3.4255872743067248e-08 -4.0492931590426882e-08 0.0000000000000000e+00  -4.3417536923638901e-08 -2.5195498546221685e-08 0.0000000000000000e+00  -3.7808626431462560e-08 -3.5101179247660819e-08 0.0000000000000000e+00  -4.5636740009111180e-08 -1.8342512674480207e-08 0.0000000000000000e+00  -4.2217050493079772e-08 -2.8491200066341878e-08 0.0000000000000000e+00  -4.8076758841528957e-08 -1.0339428222502396e-08 0.0000000000000000e+00  -4.4789878547009318e-08 -2.0797736890050188e-08 0.0000000000000000e+00  -4.8198575041283222e-08 8.6628310488010111e-10 0.0000000000000000e+00  -3.2423830238724654e-08 -4.3206258472650565e-08 0.0000000000000000e+00  1.6924957201342061e-08 -5.0897538778290680e-08 0.0000000000000000e+00  2.9186331123880802e-08 -4.6243303098645675e-08 0.0000000000000000e+00  2.4605793054606182e-08 -4.9800384948972323e-08 0.0000000000000000e+00  -4.1689636510761365e-08 -8.8136784164656426e-09 0.0000000000000000e+00  -3.5173130019375020e-08 -3.1914142504994236e-08 0.0000000000000000e+00  3.2621025729715280e-08 -3.6361238523189025e-08 0.0000000000000000e+00  4.1142724934928806e-08 -3.0568438429260780e-08 0.0000000000000000e+00  -1.2878273977268621e-08 -5.5860919737275447e-08 0.0000000000000000e+00  -2.5955288649899054e-08 -4.8859974618266772e-08 0.0000000000000000e+00  -1.4667162187054081e-08 -5.5608721573940134e-08 0.0000000000000000e+00  2.1289531393377043e-08 -1.3651745913312434e-08 0.0000000000000000e+00  1.6787625071923692e-08 -5.0621733361909715e-08 0.0000000000000000e+00  2.9182175305230803e-08 -4.5950834288330266e-08 0.0000000000000000e+00  -4.7673162899196073e-08 -1.3075702266267282e-08 0.0000000000000000e+00  -4.8516313610345379e-08 9.3305938083039972e-09 0.0000000000000000e+00  -3.8296659054059961e-08 -1.6598712613185100e-08 0.0000000000000000e+00  2.5189377739299944e-08 -4.9623537324593596e-08 0.0000000000000000e+00  3.6652946789660124e-08 -3.7597669074023593e-08 0.0000000000000000e+00  4.0965256083703464e-08 -3.0248866153220761e-08 0.0000000000000000e+00  4.5182686307600360e-08 -2.1302627693321738e-08 0.0000000000000000e+00  4.7694039567322299e-08 -1.0507706726428958e-08 0.0000000000000000e+00  4.8500093373904190e-08 -2.5895944359727718e-09 0.0000000000000000e+00  4.8091341326381723e-08 1.0536957378263265e-08 0.0000000000000000e+00  4.6583622491022029e-08 1.5545010601713824e-08 0.0000000000000000e+00  4.2497257169270236e-08 2.8986546518306403e-08 0.0000000000000000e+00  4.7984853059891561e-08 3.0767178482603699e-09 0.0000000000000000e+00  -4.4982329087858540e-08 2.2054993948302783e-08 0.0000000000000000e+00  -4.3326302766077241e-08 2.6727940648177663e-08 0.0000000000000000e+00  4.0576560764871392e-08 3.1548706042546352e-08 0.0000000000000000e+00  3.3112973660845048e-08 4.2717041732928511e-08 0.0000000000000000e+00  3.1465908541888649e-08 4.3609411619974780e-08 0.0000000000000000e+00  2.0959797373264549e-08 5.2231800103656348e-08 0.0000000000000000e+00  1.9866379717984989e-08 5.2708901383377307e-08 0.0000000000000000e+00  2.2419075153572865e-08 5.1260457581556378e-08 0.0000000000000000e+00  3.1186398030084579e-08 4.4693412972455744e-08 0.0000000000000000e+00  9.3771714023384332e-09 5.6673109394496727e-08 0.0000000000000000e+00  1.8261747856187001e-08 5.3574367067469690e-08 0.0000000000000000e+00  7.1351632625019290e-09 5.5819805704169631e-08 0.0000000000000000e+00  -7.0641855507610848e-09 5.6821701602588468e-08 0.0000000000000000e+00  3.0384605170737523e-08 4.3851412729139466e-08 0.0000000000000000e+00  -3.1292644397400350e-08 1.2177712644006049e-08 0.0000000000000000e+00  -3.6321691344746125e-08 3.9259027572466787e-08 0.0000000000000000e+00  -1.1020967660632396e-08 5.3014608132398697e-08 0.0000000000000000e+00  -2.2925420048973817e-08 5.0855844625484166e-08 0.0000000000000000e+00  6.0562668855073586e-09 5.7185097282256630e-08 0.0000000000000000e+00  4.1841028671872032e-08 2.4712516341299865e-08 0.0000000000000000e+00  1.3978002171483097e-08 5.1399422999735714e-08 0.0000000000000000e+00  4.3556447202520155e-08 -1.6451916491850685e-08 0.0000000000000000e+00  -1.6560148357796939e-08 5.3823106570227813e-08 0.0000000000000000e+00  4.9778168727727210e-09 4.7342332604040478e-08 0.0000000000000000e+00  2.7141143956407980e-08 3.6777124519227715e-08 0.0000000000000000e+00  -2.8632885435705736e-08 4.2081504463374390e-08 0.0000000000000000e+00  -3.6553152186017242e-08 3.8561735885877299e-08 0.0000000000000000e+00  4.1020888366205700e-08 3.2125452019791735e-08 0.0000000000000000e+00  -4.6715864178280394e-08 1.4754146036125366e-08 0.0000000000000000e+00  4.7841169402383449e-09 4.0978060716804177e-08 0.0000000000000000e+00  -5.8951534157490334e-09 5.3190985172561584e-08 0.0000000000000000e+00  -4.1718017011070627e-08 2.5044307178155316e-08 0.0000000000000000e+00  -4.5478893360535493e-08 2.1776666044130426e-08 0.0000000000000000e+00  -3.0771084683600162e-08 2.4837897175254019e-08 0.0000000000000000e+00  4.1070645375492783e-08 -2.9615873173308177e-08 0.0000000000000000e+00  -3.5050533396107143e-08 4.0413444358421391e-08 0.0000000000000000e+00  -2.4562467796231251e-08 5.0061113984709948e-08 0.0000000000000000e+00  4.7858277969689429e-08 -1.1717838738998582e-08 0.0000000000000000e+00  4.7581533877649002e-08 4.8485191632905391e-09 0.0000000000000000e+00  4.1147105307285377e-08 1.8603525338448192e-09 0.0000000000000000e+00  1.9412139777946462e-08 2.4250185456450261e-08 0.0000000000000000e+00  -3.5275543339714906e-08 3.4283871809880236e-08 0.0000000000000000e+00  4.3008014353998536e-08 -1.8029618432636504e-08 0.0000000000000000e+00  -4.0011795250097534e-08 3.3460642763213693e-08 0.0000000000000000e+00  3.6910884584262100e-08 6.1789534167111108e-09 0.0000000000000000e+00  1.7193527794589915e-08 1.5079195199163216e-08 0.0000000000000000e+00  4.8532211149461503e-08 7.0304194214726074e-09 0.0000000000000000e+00  -1.2545894858103750e-08 1.9401128887164092e-08 0.0000000000000000e+00  -4.8433854257443265e-08 5.0779225344358210e-09 0.0000000000000000e+00  -1.7857239691252162e-08 3.8341678439678494e-08 0.0000000000000000e+00  -2.3808727086225185e-08 4.9404252542514787e-08 0.0000000000000000e+00  -1.0340582052243990e-08 5.6089543394834943e-08 0.0000000000000000e+00  -1.2065315799482333e-08 5.5280937657653765e-08 0.0000000000000000e+00  -1.4269142634897515e-09 5.7178530124599937e-08 0.0000000000000000e+00  3.0323000078135414e-08 3.1674266244983179e-08 0.0000000000000000e+00  2.9663910523138468e-08 4.2881237886251914e-08 0.0000000000000000e+00  -4.8848232847533831e-08 5.5864419668294997e-09 0.0000000000000000e+00  4.6514375487966091e-08 2.5464260059443257e-09 0.0000000000000000e+00  4.3902214505011320e-08 -2.4051316347912506e-08 0.0000000000000000e+00  -1.3986577280115639e-08 -5.5633756955031364e-08 0.0000000000000000e+00  -2.2376268747658732e-08 -4.2949774110532340e-09 0.0000000000000000e+00  -4.7787156589966680e-08 -9.2180117628881272e-09 0.0000000000000000e+00  4.1550786872479958e-08 2.3066343503715098e-08 0.0000000000000000e+00  1.2200183034510341e-08 -5.5879497599780334e-08 0.0000000000000000e+00  3.6012517063078532e-08 -3.8392654522704688e-08 0.0000000000000000e+00  3.1205602120318675e-08 -4.3586656679296132e-08 0.0000000000000000e+00  -2.9865633997882438e-08 4.5827281580856289e-08 0.0000000000000000e+00  4.5534674674607849e-08 1.9351489320214787e-08 0.0000000000000000e+00  3.9867245774072293e-08 3.2810263608841276e-08 0.0000000000000000e+00  -4.2437886700452840e-08 4.3971178388285296e-09 0.0000000000000000e+00  -8.7923332652256337e-09 2.1418550373271214e-08 0.0000000000000000e+00  -1.2774348698490305e-08 4.1376804258865191e-08 0.0000000000000000e+00  4.6919568469270640e-08 -1.3310245517039087e-08 0.0000000000000000e+00  -4.8325027198496523e-08 -1.2868785849514917e-09 0.0000000000000000e+00  -3.6481281381902031e-08 -3.7595019872311497e-08 0.0000000000000000e+00  1.2386700222631924e-08 -5.5795770056041180e-08 0.0000000000000000e+00  -1.9446576944499344e-08 -3.6826924241454046e-08 0.0000000000000000e+00  -2.5663166445869289e-08 4.9001126225427288e-08 0.0000000000000000e+00  -4.3612368858191645e-08 1.3937722340054370e-08 0.0000000000000000e+00  3.1695571896135170e-08 -3.7452641327788707e-08 0.0000000000000000e+00  4.7069120663516357e-09 5.6920847922046613e-08 0.0000000000000000e+00  -4.5726436874499223e-08 -1.6058347059985995e-08 0.0000000000000000e+00  3.4662421749162031e-08 -2.0548246324225676e-08 0.0000000000000000e+00  4.7829122456690430e-08 -8.3199826873928299e-09 0.0000000000000000e+00  3.4773578020735091e-08 4.0994620376383976e-08 0.0000000000000000e+00  -2.4083375430750795e-08 -5.0528768527805844e-08 0.0000000000000000e+00  2.0617549406373882e-08 1.4629867586661348e-09 0.0000000000000000e+00  -2.5863800924950831e-08 -4.9356718442258169e-08 0.0000000000000000e+00  1.1725300803408379e-08 5.5791524495459132e-08 0.0000000000000000e+00  -4.1549193074620475e-08 2.9948041454609393e-08 0.0000000000000000e+00  -4.5858126524536250e-08 1.8658747974418746e-08 0.0000000000000000e+00  2.1049730975749364e-08 -5.2025905877093093e-08 0.0000000000000000e+00  3.5440415440982950e-08 1.8689976826753337e-08 0.0000000000000000e+00  3.2190735141844480e-08 -2.3510907002220865e-08 0.0000000000000000e+00  5.8785239131720138e-09 3.0307264345244097e-08 0.0000000000000000e+00  4.5057025081957428e-08 2.2636260022667666e-08 0.0000000000000000e+00  -2.2613417661066860e-08 -5.1507704235566757e-08 0.0000000000000000e+00  -4.8389797432260808e-08 4.3813608994113441e-09 0.0000000000000000e+00  1.7156942520807380e-08 4.9159693134893110e-08 0.0000000000000000e+00  1.6257426758328902e-08 3.7277975983113369e-08 0.0000000000000000e+00  4.5897515316139390e-08 1.9032261437172321e-08 0.0000000000000000e+00  -3.4285144978685067e-08 4.0880251560056580e-08 0.0000000000000000e+00  3.4197396664101837e-11 -4.5662695607438284e-12 0.0000000000000000e+00  -2.9710329816123142e-08 2.7905469076897219e-08 0.0000000000000000e+00  1.1580350954475590e-08 -4.2077990539020518e-08 0.0000000000000000e+00  3.1761278198096169e-08 1.7198653338949041e-08 0.0000000000000000e+00  -2.2517586493210828e-08 -3.1929288465649805e-08 0.0000000000000000e+00  3.5348859479061564e-09 2.2373156400154595e-08 0.0000000000000000e+00  5.8355447049421475e-09 4.3351994625141816e-08 0.0000000000000000e+00  3.5705625035225657e-08 -8.5178467131873828e-09 0.0000000000000000e+00  -1.8000397159866537e-08 -3.0450455141395178e-08 0.0000000000000000e+00  -3.5283992727206142e-09 2.4526107017469547e-08 0.0000000000000000e+00  2.6848646468805953e-08 -2.2570956806854737e-08 0.0000000000000000e+00  -3.0991677986932909e-08 8.3121886985180605e-09 0.0000000000000000e+00  -4.1725772978760347e-08 -6.8953522673872766e-09 0.0000000000000000e+00  1.2358044239226468e-08 -1.8705855755737892e-08 0.0000000000000000e+00  -3.4319262523130329e-08 6.9384579603886616e-09 0.0000000000000000e+00  -4.3746213358866754e-09 -1.6641075834568256e-08 0.0000000000000000e+00  3.2133362377423055e-08 2.8973148606778499e-08 0.0000000000000000e+00  -1.5185106169142428e-08 4.2605423325183918e-08 0.0000000000000000e+00  1.9417259713090461e-09 -4.3923918932443201e-08 0.0000000000000000e+00  2.1803069767657386e-08 6.4219508049901494e-09 0.0000000000000000e+00  4.3178430593674549e-08 -8.5215862916925331e-09 0.0000000000000000e+00  2.6197501018663435e-08 -3.6296504368638782e-08 0.0000000000000000e+00  3.4771126817132613e-08 -3.4285851292076835e-08 0.0000000000000000e+00  1.7038946922027213e-08 4.1926094736308792e-08 0.0000000000000000e+00  -1.3348637663716480e-08 -4.9209473432321735e-08 0.0000000000000000e+00  3.1073290539769326e-08 1.0795407474080917e-08 0.0000000000000000e+00  -1.4771023152722920e-08 4.7710849561428920e-08 0.0000000000000000e+00  2.5058343267763852e-09 -4.7971790502632064e-08 0.0000000000000000e+00  -3.4458208600458649e-08 -3.3894473662539233e-08 0.0000000000000000e+00  1.3504409033829367e-08 4.5482049309279445e-08 0.0000000000000000e+00  -1.6015568300914163e-08 -1.1617472163064694e-08 0.0000000000000000e+00  -4.3384939154695869e-08 1.5828986772076538e-08 0.0000000000000000e+00  -4.4660710271958753e-08 1.5012510434518094e-08 0.0000000000000000e+00  -4.1006451741090267e-08 -1.8347842046567019e-08 0.0000000000000000e+00  3.3215149000385758e-08 3.8434547664653622e-08 0.0000000000000000e+00  -4.0583526640845007e-08 -1.5712178517326268e-08 0.0000000000000000e+00  4.5310870613791228e-08 1.0810351331062940e-08 0.0000000000000000e+00  -1.9558753916123119e-08 2.9357702237704141e-08 0.0000000000000000e+00  2.2285427898389717e-08 -4.5508745277757637e-08 0.0000000000000000e+00  2.4482403528366166e-08 -6.6387668253272563e-09 0.0000000000000000e+00  1.3320019260242964e-08 -2.0181080957938213e-08 0.0000000000000000e+00  </DataArray> 
</PointData> 
</Piece>
</UnstructuredGrid>
</VTKFile>