<?xml version="1.0"?>
<VTKFile type="UnstructuredGrid"  version="0.1"  >
<UnstructuredGrid>
<Piece  NumberOfPoints="201" NumberOfCells="657">
<Points>
<DataArray  type="Float64"  NumberOfComponents="3"  format="ascii">-0.2904064758781372 -0.1334546696117645 899.1941413698128  -0.1464023475989398 -0.0199441355985498 -899.4671147264874  1824.539110808509 0.05229348393700797 -859.0719373088363  3461.901922258894 -0.0336765896927776 -738.4375302906091  4749.181970167182 -0.05228260828369937 -545.0354376239098  5568.38162053746 -0.08433620712786735 -289.4097860290689  5849.410551245769 -0.2413968417600329 0.09101083990874044  5568.461098713112 -0.2928179352669232 289.3497012049788  4749.163175324731 -0.1377961489317217 544.8364707294577  3461.804193229769 -0.07723836556678279 738.5298013854083  1824.566112936227 0.15340815449579 858.7236206482777  2308.073637872958 -1711.549725615554 -790.5725459813639  2294.277693721397 1329.830044732233 808.3876027608201  5569.15296822711 -1512.503167872254 -139.3316169481078  4027.541279798523 -1657.177300872092 615.1488766977734  5073.480990765362 1532.090535547435 392.7973423885032  5052.84799706891 1531.732417091052 -399.4186096770735  2576.64070052548 1531.612844089447 -780.7960566761891  889.3228414663974 -1534.240971163659 858.9867538687706  4002.013936348145 -1527.390847638504 -627.4451232135534  2786.58007137645 -2997.941853532622 -647.3962311862388  4129.689019251381 -2930.566374561107 -451.1526126563862  2830.800301909313 -4188.451956208086 -433.8710065714263  3981.911509584346 -3923.878266926396 -215.1749297170385  2498.23224000963 -4977.814721600163 -182.8080926470367  3555.81729024373 -4465.236619305552 46.35853417327269  1867.619401180438 -5316.985972678623 83.38953682831401  2712.120750708551 -4623.643313783227 315.6275340041399  977.1597984100541 -5182.495624430851 335.1388015099876  1739.970628873583 -4236.834786321901 548.6679811688507  -67.67705859666292 -4551.214060235359 549.6055087178139  4158.417442371865 -3630.950597152182 266.4957606875114  4002.412288210435 1527.15414019346 627.4275023918883  4046.542439253136 2950.197834683429 466.4994400688368  4889.936603403037 2821.204224585228 212.8395141565814  652.5716013669658 -3391.471914459671 725.0298094899415  2389.086899096223 -2971.742419541417 686.0213554190376  2787.222071182591 2827.635582850531 666.6148809108249  2678.334375064603 4125.468240124199 472.4132012436799  5580.008857203127 -1475.737493139512 139.3779963630451  4919.19752989026 -3048.498111752645 16.20976125866224  5084.98416573526 -1533.490346607089 -388.7688773302112  889.3297234647617 1534.311917103706 -858.6681509197025  3962.947649361349 1489.34383074492 -635.7700699598319  4015.632693542084 2934.567717160279 -475.6020244180908  1213.829461243889 -5029.629922392277 -376.9776551987298  -849.4991387227527 -5243.855324607835 317.5254082967699  1190.993563907059 -3080.270030431738 -743.5500207339721  4856.824988108829 2855.376645504924 -219.9716949810736  3632.781306783427 4125.460422856005 -264.5873022625644  2585.459567622622 4024.131083635441 -507.4161118647445  2036.907837936764 5001.619757232532 -284.8345426541427  901.7342800997779 4705.555156822335 -494.068786425539  263.1413290731736 5414.128188387881 -258.6175164435041  -923.9879809704632 4839.834160948813 -456.6272049065731  -1521.537744399837 5315.40393326954 -195.3979618466243  -2684.246659524577 4544.232853276484 -351.8898999322954  -292.8124774985295 5626.96364204156 17.42102606071371  -1874.384765199349 -4372.869294436236 507.7832024760765  -2582.77427080227 -4824.822553790022 253.8664160649897  -3147.449471128917 4716.169651316112 -95.6924452018775  -4159.376882352341 3691.456950132265 -242.1047562845939  -4427.311462996306 3680.495872429862 21.702055833329  -5195.29170346644 2428.617985775904 -151.5841372660138  -5266.076440368553 2305.179085448538 141.1778487508872  -4623.591812383888 2306.29276716681 -428.2923615150308  -4262.180793159188 3409.359481855065 303.4885310489444  -5498.627792893421 1007.944221314556 -274.656685057932  -4873.073654553421 1898.309618634434 412.5558786591712  -4693.308448449847 648.9741605304172 -546.5617399150946  -5260.41368798406 -732.54906855071 -392.8869271604273  -3631.939513182366 2866.435613284416 555.8716229735752  -814.9382608889704 -2353.80011600647 815.1426196263956  -3531.991178677104 -3736.058613158878 416.0013599268481  -4222.173588716189 -994.7831031872325 -620.5692619691924  -4550.811318187489 -2329.819928930851 -444.2051412017091  -5623.518297667869 639.8481976057425 237.1847136621109  -1964.634104796315 3774.699534372542 -614.2785713167306  -4021.946909722467 1225.673687064997 641.5344873039841  1264.826067375083 3816.364465871836 650.2583560370257  -5416.148190037445 -1904.740632426681 -159.4099603036684  -3427.941446764324 398.25788362114 -739.8410615499954  -2670.498301183517 2187.787451463815 733.9133439623351  -3288.451441716005 -2513.06546061836 -644.6127861575688  -3434.181680481623 -3731.531771229553 -437.1569147085016  -2893.601584340353 4201.791486140038 419.7097918582906  -1474.639611320366 -5441.483532920782 60.54845711902669  -2816.056539707863 368.6923244667778 795.7471035252962  -4149.071075001664 -531.0279849438945 646.3196372541728  -1986.846501882031 -3750.795777790119 -616.0458299059123  -1987.856631399378 -4768.629474509584 -386.4896320688508  -1717.391553817104 -2382.342986618884 -782.0727916122086  2966.55780040245 4853.774200611612 -26.51663358599735  -3990.491066214697 -4000.608270217103 166.3210725292485  -4807.227696808756 -2703.342112629501 290.6166354409059  1049.925065487744 4899.714161025441 432.047316274068  -380.0402084847184 4426.490996860748 572.2431226866646  -131.9560217299849 3344.196018069624 737.5258079925677  -1598.863883393976 1416.221059334979 841.3770543030375  -2656.448941047302 -3064.766809005339 652.411937696501  1386.730971800296 3731.7568911008 -656.6785873443011  -3280.667791412638 -4504.44090117634 -204.7507180255404  -436.3337437011405 2869.222666531439 -781.7244180479582  -969.123530166864 1232.415766550888 -868.418896504547  -651.9350488241827 5269.730508833436 317.3288835935883  -1247.769380037999 -872.9408727707372 870.3753053467473  -424.2198433783867 -4632.942321110479 -527.0819597001857  -2690.346614807833 -1399.085219526207 778.2752033406772  -4131.67731686063 -2244.184523129987 545.7288425492769  -5134.559835948437 -1076.794414896031 413.2987758351464  -5607.597789840863 -1395.52330598767 131.9509098086576  -5823.99160300922 -181.305984918299 -81.78752067004365  -2262.530190464324 2436.071840923044 -746.0690057488147  -3423.115380043178 2688.140518013009 -608.7087359445178  -498.6077038853152 -5309.669386382679 -306.0748458462786  -199.975743764221 4182.011682004759 -620.4813224410135  2334.402158468241 4956.632259518918 244.5977028568042  5051.60873802618 -1465.659927249403 406.3070403049704  294.616834716909 -1610.23064549044 -864.0973120295688  924.8661273664709 -5497.651622811138 -144.6128843283279  -1790.491285881858 3617.665325738833 649.8195319099093  5592.91996020692 1417.892958086 -142.3116643114565  3739.956730156304 4087.454415036051 241.3038506220384  4409.062737439957 3702.077793681009 -10.73279287019934  -4469.141987637757 -3350.977431314686 -236.9177262299895  -1938.517360222226 5299.156855448002 73.09805805838526  -3252.835812580422 4570.91502428104 171.658457869605  -319.3592194378715 -3466.92878907334 -721.5711546681051  -1376.247172804935 -634.4830763527326 -871.4470406562328  -2895.319830778682 -1016.12736807364 -775.8517504919537  1351.37074781923 5475.419847387196 -48.11272649202226  157.9159909506742 -5599.009550407684 104.3800837422281  3239.829458597455 -3570.595882209108 505.068968414454  5602.499599034057 1436.092786246284 126.2977807988374  2577.867855848825 -1520.502982591206 781.4584920832758  -4947.975155266238 -3003.096772932545 23.19476578898459  -1053.08542501765 -3737.785286491313 670.0906364892244  2865.72650037222 2741.45099383581 -667.6343558243937  -5024.543588067544 450.5835239520569 474.0421448379893  1318.443508981444 -4212.825746986441 -580.9525590015155  1443.497196353955 2725.30449780589 767.0923564203219  833.5103591914368 5452.760749788596 196.9937732166677  -3646.79840762915 3540.24081390808 -437.1680011195773  4895.924010739465 -2717.512957303878 -244.8940290882141  -90.48295970333899 1479.041716144526 870.1447409058792  4440.542777263291 -2648.992771435496 423.1582410907614  -5679.108605155274 1343.278534756031 -21.44568915210896  -3023.831348700982 -4824.213623061613 8.870525439132887  -1847.249004793359 -5266.332957365244 -155.6732084071262  5248.227284609959 2488.841075315836 -6.639466396971377  -1315.316801076587 2795.786961975876 766.277622813374  1637.150365295777 2538.924277474998 -774.1415529826024  -1990.040765499738 417.8423634390402 -848.5168564928548  -2141.331579072352 4935.199485083459 297.2860337767193  4979.501765671105 -2527.848801735963 257.7031349772052  -399.2194128111378 -5594.540655508989 -94.26986986837991  -3771.872697921449 1472.692462907776 -663.294060554117  -2583.787660458069 1254.307158127906 -792.2507943875702  -1640.657838259778 4545.477655673888 486.942537553417  -4113.77816078798 -3994.554128209641 -52.49246379997162  0.007345722423136833 0.05883632248871479 -0.02864028162934219  -1881.136424742389 -2223.116381125341 25.03440593313329  2844.283537969004 866.9637981295264 -4.164651231541853  -1133.813759520256 2337.556404134631 199.7905995800979  2120.997600214173 -1657.079302887464 181.7580824353324  -1384.335199101832 242.9278143059771 -401.1615787630935  -2925.516335992347 441.1047064263987 0.2765408584026123  559.3025535396064 2643.745408119668 -173.6504378445475  1977.801364546403 -1303.451435728558 -271.1297043596118  -1539.768294815052 -247.8337374106351 389.4782454664828  1475.01630470017 1967.577088176639 315.5319355874517  -544.6128208334839 -2245.964675537809 -342.4781104070138  486.3064799656427 -3238.846081397388 1.656675457381088  1175.576434053869 862.1839946354157 -446.83
[...]
<PointData  Vectors="Velocity"> 
<DataArray  type="Float64"  Name="Velocity"  NumberOfComponents="3" format="ascii">-7.9325895327052598e-07 -3.4348753780183233e-07 -1.3236502839275804e-04  -3.9280145303545023e-07 -4.9377551081773043e-08 1.3162812555093944e-04  1.2675853453591725e-04 9.7059118682798156e-08 1.1510082232839852e-04  2.1701825662813579e-04 -1.3280921888759050e-07 7.7117224845192785e-05  2.5568485163748129e-04 -1.9540349631517846e-07 3.3835524143300238e-05  2.6146842031794397e-04 -2.7518005504053936e-07 1.0377544948049335e-05  2.6019641608631230e-04 -6.6282081507540176e-07 2.1527648082837220e-07  2.6166042769077558e-04 -8.0278672744887547e-07 -1.0532346461044365e-05  2.5564658382741274e-04 -4.1380915710933103e-07 -3.4350773678922111e-05  2.1676360864937065e-04 -2.5334391924229117e-07 -7.6898762307299039e-05  1.2683553152593617e-04 3.8025575608617512e-07 -1.1602865123339014e-04  1.5080987626089784e-04 -1.0010987038078730e-04 9.1007086594693009e-05  1.5333380972733750e-04 7.8735148265787937e-05 -9.8122381953502782e-05  2.5137541127175501e-04 -5.9424097728116932e-05 3.7092106159815355e-06  2.2864052111720552e-04 -8.2574742103256924e-05 -4.6452910007445614e-05  2.5002492921590469e-04 6.6005859646824187e-05 -1.6740088565846008e-05  2.5019851839164269e-04 6.5215139579243839e-05 1.7614442154274454e-05  1.6681136904526321e-04 8.8597410166410621e-05 8.8076881506356924e-05  6.1610458862925943e-05 -9.5960512567464109e-05 -1.1537233497072423e-04  2.2879919643616276e-04 -7.7181979330099632e-05 4.9317220066875322e-05  1.6152965155178994e-04 -1.5437509242450522e-04 5.3664999730607631e-05  2.1113356532402621e-04 -1.3026221866315577e-04 2.3329117741623956e-05  1.4238450968892595e-04 -1.8420468091023134e-04 2.1142094016373512e-05  1.8288701584812662e-04 -1.5476594255368773e-04 6.5324667305094809e-06  1.1379843574190328e-04 -1.9616046538284296e-04 5.4839929674155382e-06  1.5853833331366086e-04 -1.7082015405331787e-04 -1.1277646700325803e-06  8.2847007682558909e-05 -2.0618999172364533e-04 -2.5848003155673238e-06  1.2867744222190932e-04 -1.9072849523837413e-04 -1.1786992000459945e-05  4.6701044263972410e-05 -2.1719805196365272e-04 -1.3785202529256123e-05  9.3922399751397890e-05 -2.0232438660570487e-04 -3.5729901520795159e-05  -3.9086954601806192e-06 -2.1771802098631004e-04 -3.6108295096524000e-05  1.9514324765040211e-04 -1.4649221123120608e-04 -9.5350259758359343e-06  2.2983447477251427e-04 7.6449998573978578e-05 -4.9331265596498698e-05  2.0884359251473531e-04 1.3185348541063286e-04 -2.4482050921914113e-05  2.2492201130334491e-04 1.1117114009358148e-04 -6.7213967949621665e-06  3.9795353187492627e-05 -1.8826774020384764e-04 -7.4535595677934445e-05  1.4410160020400414e-04 -1.5885684077006720e-04 -6.3949280636603088e-05  1.6418159601481902e-04 1.4733577883035081e-04 -5.7477671276412534e-05  1.3804865977226744e-04 1.8586300911672385e-04 -2.6105252767965353e-05  2.5230272176524342e-04 -5.8189275498756086e-05 -3.6119735773027424e-06  2.2068646128644859e-04 -1.1727441190159245e-04 -2.9396786329730344e-07  2.5115172455983988e-04 -6.6265876817647612e-05 1.6979796241299025e-05  6.1620223198004021e-05 9.6113659686391457e-05 1.1627211976253015e-04  2.2858705847201311e-04 7.5829657319746670e-05 5.0683070155310329e-05  2.0751758506731382e-04 1.3183228776670041e-04 2.5635895676256779e-05  5.9056647490777972e-05 -2.1537141168455473e-04 1.6755080411945811e-05  -4.2138575134107015e-05 -2.1918567950159382e-04 -1.2427615384701186e-05  7.4942276833538367e-05 -1.7294046103448927e-04 7.8855315467950119e-05  2.2412481455697262e-04 1.1381071717660262e-04 6.8796345647284278e-06  1.6980493740162810e-04 1.6559807100035917e-04 8.8460251904135619e-06  1.3660242409809458e-04 1.8505476574801993e-04 3.0170372281926617e-05  9.6211554330283543e-05 2.0413423830343088e-04 1.0582913590974175e-05  4.7453518232286654e-05 2.1545143216442739e-04 2.8615519355610709e-05  1.1695313247581043e-05 2.1912037647661356e-04 9.2477470770709127e-06  -4.7585024672640042e-05 2.1725271268654707e-04 2.4962177508780497e-05  -7.0205855495811666e-05 2.1046144255975328e-04 6.0747704376064816e-06  -1.3091313537436959e-04 1.9199151294261321e-04 1.4246435134093281e-05  -1.3896830925507017e-05 2.1679961339005028e-04 -2.5208517992562999e-07  -9.9597747267356055e-05 -2.0319687508639833e-04 -3.0685197506820301e-05  -1.2071275559541250e-04 -1.9574030083370416e-04 -8.8562941764043357e-06  -1.4249191346088973e-04 1.8332631293323790e-04 2.3481113841213161e-06  -1.9293079224527409e-04 1.4960433304827162e-04 7.7655353842640922e-06  -1.9696328028826144e-04 1.4216370873856935e-04 -6.0663775953988769e-07  -2.3591486021370034e-04 9.4694506934569583e-05 4.1747220697729577e-06  -2.3806826699806355e-04 8.9754194877229637e-05 -4.5385656186944523e-06  -2.3150551360022519e-04 1.0127702002110377e-04 2.0530771583845483e-05  -2.0185471491839836e-04 1.4089570531281172e-04 -1.0780284297922953e-05  -2.5596687920767292e-04 4.2363298863978501e-05 9.1571206445443719e-06  -2.4195839589931695e-04 8.2497116414951551e-05 -1.9255382925318049e-05  -2.5208386271963830e-04 3.2230306783261658e-05 3.4287373174320945e-05  -2.5662896170762229e-04 -3.1916548149422924e-05 1.7283774785481602e-05  -1.9802920998748287e-04 1.3724988567343730e-04 -3.6845558584907214e-05  -5.4969323066735319e-05 -1.4128750199364062e-04 -1.0193922010600452e-04  -1.7730675033621724e-04 -1.6408966745828696e-04 -2.0304525381749032e-05  -2.3940036016351475e-04 -4.9781055562114829e-05 4.7737314820962635e-05  -2.2967926722669967e-04 -1.0356750143790660e-04 2.2083419904794609e-05  -2.5828433089232744e-04 2.7359404349903868e-05 -7.4967043329616685e-06  -1.1159014171360441e-04 1.8898655957261040e-04 4.6773769135356981e-05  -2.3210070708978766e-04 6.3133587251550170e-05 -5.1298652041501747e-05  7.4286870491513900e-05 1.9672792190241639e-04 -5.4219129772348030e-05  -2.4309816762329981e-04 -7.4820116265177084e-05 4.0183374127524938e-06  -2.1374921732326426e-04 2.2477897907231893e-05 7.6162696033444755e-05  -1.6604606529817064e-04 1.2256744991665148e-04 -7.5267999788649909e-05  -1.9001961118177298e-04 -1.2932482855894812e-04 5.2302480543424533e-05  -1.7415441829120570e-04 -1.6513121393767511e-04 2.2266875731843348e-05  -1.4508644922164176e-04 1.8531797961413379e-04 -2.0313616816156203e-05  -6.6633672992579305e-05 -2.1105903125354569e-04 -1.4681866531317923e-06  -1.8499233560519951e-04 2.1601230263735846e-05 -9.4225481168082673e-05  -2.4019076328587416e-04 -2.6627933499379228e-05 -5.2955008096297792e-05  -1.1308739060116877e-04 -1.8843007968391892e-04 4.7950854609191391e-05  -9.8346710209255172e-05 -2.0545457851667208e-04 1.7052110956778357e-05  -1.1213087576236497e-04 -1.3894576428426198e-04 8.9077629260308670e-05  1.3376283534401385e-04 1.8556410150757691e-04 7.1211112697971721e-07  -1.8253208454290128e-04 -1.5836139377212882e-04 -5.1739675970580862e-06  -2.2610200240411971e-04 -1.1097023680788685e-04 -1.0153926840202472e-05  5.2919388323039082e-05 2.1620636625293701e-04 -2.1835962617336072e-05  -2.1893257944657677e-05 2.1492726181549993e-04 -4.0908328803775679e-05  -8.3988801295645775e-06 1.8581631733385388e-04 -7.5647893643455990e-05  -1.0946460742604739e-04 8.7640648347485665e-05 -1.0844456649724738e-04  -1.5480685889227239e-04 -1.5932430640467075e-04 -5.4674557392975849e-05  8.1409558549395841e-05 1.9425098178280231e-04 5.6171258759564470e-05  -1.5112560228278807e-04 -1.8077478891565549e-04 6.4853797717724637e-06  -2.7893535995705870e-05 1.6666952482158423e-04 9.0036151563809073e-05  -6.8061353497290235e-05 7.7618819991151044e-05 1.1885781375520798e-04  -3.1750507457794291e-05 2.1926335458373589e-04 -1.2772053654081333e-05  -8.7568442551684642e-05 -5.6635175647613644e-05 -1.2118628342048658e-04  -2.2928376047570061e-05 -2.1878697302506677e-04 3.3292521718622093e-05  -1.7309802423567502e-04 -8.0635795935498313e-05 -8.7050355106008877e-05  -2.2311117212945231e-04 -1.0755070641289026e-04 -3.5639445383260134e-05  -2.5331985486581399e-04 -4.6716242526578835e-05 -1.8273668522252126e-05  -2.4968223085696705e-04 -5.4511254461975973e-05 -3.3529303851313902e-06  -2.5826049212809203e-04 -6.4498269505621878e-06 1.8227430157453918e-06  -1.4300426878861017e-04 1.3693221822760806e-04 7.8014572835238285e-05  -1.9363912784024426e-04 1.3398726354401852e-04 4.5528052789786955e-05  -2.5228886603820820e-05 -2.2068608909271977e-04 1.1748242884068825e-05  -1.1498636904841293e-05 2.1009367808230199e-04 4.8233973335569035e-05  1.0862533052477156e-04 1.9834892990630939e-04 -8.5810381645254506e-06  2.5126033923130613e-04 -6.3187992637299916e-05 -1.8946413650133811e-05  1.9387022221648264e-05 -1.0101634963843300e-04 1.1879489464579281e-04  4.1637947164829581e-05 -2.1590208056238626e-04 4.1464115643785499e-06  -1.0415411156929626e-04 1.8766721102382681e-04 -5.4803048252943521e-05  2.5238222961518472e-04 5.5123117490654928e-05 3.7667765548742400e-06  1.7339580920684657e-04 1.6270569577294349e-04 -7.6278497209577308e-06  1.9685884843037086e-04 1.4099285851470084e-04 3.0380496223973156e-07  -2.0698269354837466e-04 -1.3493028813247302e-04 8.1502214755828328e-06  -8.7399339806135237e-05 2.0572841657203543e-04 -2.1364080978416899e-06  -1.4818584767971121e-04 1.8011736234660903e-04 -5.2306407597497001e-06  -1.9851769778290837e-05 -1.9164909762333176e-04 7.2952631017672280e-05  -9.6675665720491555e-05 -3.9693475109165268e-05 1.2018357156879957e-04  -1.8680104239442177e-04 -5.7683328268978254e-05 8.7147852121932244e-05  6.0115766558996776e-05 2.1199168108126739e-04 1.0284951746201586e-06  5.8148512324923753e-06 -2.1833111630566941e-04 -2.9078217694243601e-06  1.6978125543225288e-04 -1.6480075545081380e-04 -2.9707137270681823e-05  2.5200410761210673e-04 5.5966807684366517e-05 -3.3662221421277246e-06  1.6625824933717113e-04 -8.7811885088043970e-05 -8.7597436822539371e-05  -2.2132604034556967e-04 -1.1594892712345537e-04 -6.1520895112494289e-07  -6.2931376776493818e-05 -1.9697168859884374e-04 -5.9533962937409627e-05  1.6911089176342540e-04 1.4315647243464443e-04 5.8473664000868131e-05  -2.5706790205436516e-04 2.1261000114574899e-05 -2.5114107800813978e-05  7.2517508221260469e-05 -2.0654685345786194e-04 4.1379692661033847e-05  9.2767164604261592e-05 1.5652538114273645e-04 -8.5006248948445916e-05  3.7576841102654235e-05 2.1609194551811347e-04 -6.5299172260957549e-06  -1.8514217193127229e-04 1.5709228996666337e-04 2.1896025553221074e-05  2.2821695670096048e-04 -1.0881246616058110e-04 8.4070314942214452e-06  -6.6035930119734009e-06 9.3073372126467236e-05 -1.2219385122761811e-04  2.2290853787679650e-04 -1.1684648555426705e-04 -2.0693206889192250e-05  -2.5199261712217057e-04 5.2973313282307515e-05 3.9065496757988758e-07  -1.3526093592835232e-04 -1.8772310685779241e-04 -7.2250047422437849e-07  -8.4269113125429586e-05 -2.0718050089723155e-04 4.3322373966625427e-06  2.3498129509671564e-04 9.5109295632578625e-05 -5.1173278269448321e-08  -8.4378448434384458e-05 1.6003536886521823e-04 -8.4324686507470731e-05  1.0614024229140409e-04 1.4536039049302542e-04 8.6106248802840830e-05  -1.3680499646233298e-04 2.6538351297404875e-05 1.1170824922037598e-04  -1.0223290044672579e-04 2.0356103258390633e-04 -1.1275066498846370e-05  2.3263691747416965e-04 -1.0217060281744816e-04 -8.8632949852016449e-06  -1.9787635079992632e-05 -2.1862441490706720e-04 2.7128464173711603e-06  -2.2197849670181006e-04 7.7489579859213329e-05 5.7330136774655426e-05  -1.6829058413416487e-04 7.3407733103165640e-05 9.1211907356379977e-05  -8.5948493169478424e-05 2.0733344078262655e-04 -2.7772511142786701e-05  -1.8464130207643067e-04 -1.5490367535045047e-04 1.6278960529754730e-06  2.0343906514414934e-08 1.5404935345929294e-07 -8.0560938856665144e-08  -1.2597686936380707e-04 -1.3415335230669838e-04 -3.2750808569910982e-06  1.8995518754161636e-04 5.2289611024493941e-05 4.6134741205045121e-07  -7.7638173474393925e-05 1.4340423949017690e-04 -2.4491919237731188e-05  1.4413660518629705e-04 -1.0167182000841006e-04 -2.2281717847698316e-05  -1.0098166450380665e-04 1.5956974954222966e-05 5.6739732513148771e-05  -1.9570840997516499e-04 2.6346535412592176e-05 -1.4432384495130004e-07  3.8450476653943203e-05 1.6121713183740925e-04 2.0836937623984833e-05  1.3745429957694020e-04 -8.1270865200436075e-05 3.4764221238167334e-05  -1.1070026348949927e-04 -1.5927255720074214e-05 -5.3945466565460392e-05  1.0188625628409871e-04 1.2121992597439531e-04 -3.9429799881677798e-05  -3.7518194727423201e-05 -1.3992271768172607e-04 4.3595552490248923e-05  3.1131764103963801e-05 -1.8842127197126152e-04 -2.6189425855048927e-07  8.4429182418027123e-05 5.5787860293172718e-05 6.2691627903981400e-05  -3.1318204687894605e-05 -1.5495276478640980e-04 -4.2100470453173542e-05  7.5106573943495427e-05 -1.9747367830010407e-05 -6.8789544606827471e-05  -1.3080407045997262e-04 1.4510212478769177e-04 1.8849029714851590e-05  -1.9234756542151209e-04 -6.8569090379232663e-05 2.8366768878589478e-05  1.9829086884467812e-04 8.7690998390985434e-06 -3.7823913306213392e-05  -2.8986164918874360e-05 9.8424705559606093e-05 -7.0216391170780520e-05  3.8474574757177586e-05 1.9499982806123135e-04 -1.3107722603233553e-05  1.6386715168553728e-04 1.1830266641229779e-04 2.9797908717051930e-05  1.5480902823206041e-04 1.5704452717368991e-04 -2.6329677230079239e-06  -1.8928134169565999e-04 7.6940476822327287e-05 -3.4081783626989322e-05  2.2219153053170055e-04 -6.0287135726785002e-05 4.8663278431728411e-06  -4.8728981742310966e-05 1.4029038033771190e-04 5.6839537132831474e-05  -2.1541963666279947e-04 -6.6708812352147978e-05 -1.9971814891388782e-05  2.1658277463693348e-04 1.1314922533702096e-05 3.1915820743160997e-05  1.5304412185954602e-04 -1.5562567459669676e-04 7.1928342023459640e-06  -2.0534409508755555e-04 6.0982223776829843e-05 3.2564093679349605e-05  5.2434108796329909e-05 -7.2298017448109599e-05 7.6853214017304805e-05  -7.1469964076629865e-05 -1.9593761283223600e-04 1.4421918895862136e-05  -6.7784977292139589e-05 -2.0170846406642042e-04 -1.3083833190606201e-05  8.2842762471803594e-05 -1.8518699166579668e-04 -2.7940571593639320e-05  -1.7355081837140891e-04 1.5001949674353009e-04 -1.0208732151181954e-05  7.0940800470310352e-05 -1.8327009496227846e-04 3.0339413617570873e-05  -4.8811786323590744e-05 2.0464741153991041e-04 5.7858701663938732e-06  -1.3252190034395363e-04 -8.8304615412537676e-05 6.3856989077972539e-05  2.0548289779555442e-04 1.0065139828563114e-04 -2.1601992094589564e-05  2.9965666125390702e-05 1.1052481301759231e-04 -9.5501285323141222e-06  9.1089592195571872e-05 6.0131346694172236e-05 2.1855302943826932e-05  </DataArray> 
</PointData> 
</Piece>
</UnstructuredGrid>
</VTKFile>