<?xml version="1.0"?>
<VTKFile type="UnstructuredGrid"  version="0.1"  >
<UnstructuredGrid>
<Piece  NumberOfPoints="201" NumberOfCells="657">
<Points>
<DataArray  type="Float64"  NumberOfComponents="3"  format="ascii">-0.2904064758781372 -0.1334546696117645 899.1941413698128  -0.1464023475989398 -0.0199441355985498 -899.4671147264874  1824.539110808509 0.05229348393700797 -859.0719373088363  3461.901922258894 -0.0336765896927776 -738.4375302906091  4749.181970167182 -0.05228260828369937 -545.0354376239098  5568.38162053746 -0.08433620712786735 -289.4097860290689  5849.410551245769 -0.2413968417600329 0.09101083990874044  5568.461098713112 -0.2928179352669232 289.3497012049788  4749.163175324731 -0.1377961489317217 544.8364707294577  3461.804193229769 -0.07723836556678279 738.5298013854083  1824.566112936227 0.15340815449579 858.7236206482777  2308.073637872958 -1711.549725615554 -790.5725459813639  2294.277693721397 1329.830044732233 808.3876027608201  5569.15296822711 -1512.503167872254 -139.3316169481078  4027.541279798523 -1657.177300872092 615.1488766977734  5073.480990765362 1532.090535547435 392.7973423885032  5052.84799706891 1531.732417091052 -399.4186096770735  2576.64070052548 1531.612844089447 -780.7960566761891  889.3228414663974 -1534.240971163659 858.9867538687706  4002.013936348145 -1527.390847638504 -627.4451232135534  2786.58007137645 -2997.941853532622 -647.3962311862388  4129.689019251381 -2930.566374561107 -451.1526126563862  2830.800301909313 -4188.451956208086 -433.8710065714263  3981.911509584346 -3923.878266926396 -215.1749297170385  2498.23224000963 -4977.814721600163 -182.8080926470367  3555.81729024373 -4465.236619305552 46.35853417327269  1867.619401180438 -5316.985972678623 83.38953682831401  2712.120750708551 -4623.643313783227 315.6275340041399  977.1597984100541 -5182.495624430851 335.1388015099876  1739.970628873583 -4236.834786321901 548.6679811688507  -67.67705859666292 -4551.214060235359 549.6055087178139  4158.417442371865 -3630.950597152182 266.4957606875114  4002.412288210435 1527.15414019346 627.4275023918883  4046.542439253136 2950.197834683429 466.4994400688368  4889.936603403037 2821.204224585228 212.8395141565814  652.5716013669658 -3391.471914459671 725.0298094899415  2389.086899096223 -2971.742419541417 686.0213554190376  2787.222071182591 2827.635582850531 666.6148809108249  2678.334375064603 4125.468240124199 472.4132012436799  5580.008857203127 -1475.737493139512 139.3779963630451  4919.19752989026 -3048.498111752645 16.20976125866224  5084.98416573526 -1533.490346607089 -388.7688773302112  889.3297234647617 1534.311917103706 -858.6681509197025  3962.947649361349 1489.34383074492 -635.7700699598319  4015.632693542084 2934.567717160279 -475.6020244180908  1213.829461243889 -5029.629922392277 -376.9776551987298  -849.4991387227527 -5243.855324607835 317.5254082967699  1190.993563907059 -3080.270030431738 -743.5500207339721  4856.824988108829 2855.376645504924 -219.9716949810736  3632.781306783427 4125.460422856005 -264.5873022625644  2585.459567622622 4024.131083635441 -507.4161118647445  2036.907837936764 5001.619757232532 -284.8345426541427  901.7342800997779 4705.555156822335 -494.068786425539  263.1413290731736 5414.128188387881 -258.6175164435041  -923.9879809704632 4839.834160948813 -456.6272049065731  -1521.537744399837 5315.40393326954 -195.3979618466243  -2684.246659524577 4544.232853276484 -351.8898999322954  -292.8124774985295 5626.96364204156 17.42102606071371  -1874.384765199349 -4372.869294436236 507.7832024760765  -2582.77427080227 -4824.822553790022 253.8664160649897  -3147.449471128917 4716.169651316112 -95.6924452018775  -4159.376882352341 3691.456950132265 -242.1047562845939  -4427.311462996306 3680.495872429862 21.702055833329  -5195.29170346644 2428.617985775904 -151.5841372660138  -5266.076440368553 2305.179085448538 141.1778487508872  -4623.591812383888 2306.29276716681 -428.2923615150308  -4262.180793159188 3409.359481855065 303.4885310489444  -5498.627792893421 1007.944221314556 -274.656685057932  -4873.073654553421 1898.309618634434 412.5558786591712  -4693.308448449847 648.9741605304172 -546.5617399150946  -5260.41368798406 -732.54906855071 -392.8869271604273  -3631.939513182366 2866.435613284416 555.8716229735752  -814.9382608889704 -2353.80011600647 815.1426196263956  -3531.991178677104 -3736.058613158878 416.0013599268481  -4222.173588716189 -994.7831031872325 -620.5692619691924  -4550.811318187489 -2329.819928930851 -444.2051412017091  -5623.518297667869 639.8481976057425 237.1847136621109  -1964.634104796315 3774.699534372542 -614.2785713167306  -4021.946909722467 1225.673687064997 641.5344873039841  1264.826067375083 3816.364465871836 650.2583560370257  -5416.148190037445 -1904.740632426681 -159.4099603036684  -3427.941446764324 398.25788362114 -739.8410615499954  -2670.498301183517 2187.787451463815 733.9133439623351  -3288.451441716005 -2513.06546061836 -644.6127861575688  -3434.181680481623 -3731.531771229553 -437.1569147085016  -2893.601584340353 4201.791486140038 419.7097918582906  -1474.639611320366 -5441.483532920782 60.54845711902669  -2816.056539707863 368.6923244667778 795.7471035252962  -4149.071075001664 -531.0279849438945 646.3196372541728  -1986.846501882031 -3750.795777790119 -616.0458299059123  -1987.856631399378 -4768.629474509584 -386.4896320688508  -1717.391553817104 -2382.342986618884 -782.0727916122086  2966.55780040245 4853.774200611612 -26.51663358599735  -3990.491066214697 -4000.608270217103 166.3210725292485  -4807.227696808756 -2703.342112629501 290.6166354409059  1049.925065487744 4899.714161025441 432.047316274068  -380.0402084847184 4426.490996860748 572.2431226866646  -131.9560217299849 3344.196018069624 737.5258079925677  -1598.863883393976 1416.221059334979 841.3770543030375  -2656.448941047302 -3064.766809005339 652.411937696501  1386.730971800296 3731.7568911008 -656.6785873443011  -3280.667791412638 -4504.44090117634 -204.7507180255404  -436.3337437011405 2869.222666531439 -781.7244180479582  -969.123530166864 1232.415766550888 -868.418896504547  -651.9350488241827 5269.730508833436 317.3288835935883  -1247.769380037999 -872.9408727707372 870.3753053467473  -424.2198433783867 -4632.942321110479 -527.0819597001857  -2690.346614807833 -1399.085219526207 778.2752033406772  -4131.67731686063 -2244.184523129987 545.7288425492769  -5134.559835948437 -1076.794414896031 413.2987758351464  -5607.597789840863 -1395.52330598767 131.9509098086576  -5823.99160300922 -181.305984918299 -81.78752067004365  -2262.530190464324 2436.071840923044 -746.0690057488147  -3423.115380043178 2688.140518013009 -608.7087359445178  -498.6077038853152 -5309.669386382679 -306.0748458462786  -199.975743764221 4182.011682004759 -620.4813224410135  2334.402158468241 4956.632259518918 244.5977028568042  5051.60873802618 -1465.659927249403 406.3070403049704  294.616834716909 -1610.23064549044 -864.0973120295688  924.8661273664709 -5497.651622811138 -144.6128843283279  -1790.491285881858 3617.665325738833 649.8195319099093  5592.91996020692 1417.892958086 -142.3116643114565  3739.956730156304 4087.454415036051 241.3038506220384  4409.062737439957 3702.077793681009 -10.73279287019934  -4469.141987637757 -3350.977431314686 -236.9177262299895  -1938.517360222226 5299.156855448002 73.09805805838526  -3252.835812580422 4570.91502428104 171.658457869605  -319.3592194378715 -3466.92878907334 -721.5711546681051  -1376.247172804935 -634.4830763527326 -871.4470406562328  -2895.319830778682 -1016.12736807364 -775.8517504919537  1351.37074781923 5475.419847387196 -48.11272649202226  157.9159909506742 -5599.009550407684 104.3800837422281  3239.829458597455 -3570.595882209108 505.068968414454  5602.499599034057 1436.092786246284 126.2977807988374  2577.867855848825 -1520.502982591206 781.4584920832758  -4947.975155266238 -3003.096772932545 23.19476578898459  -1053.08542501765 -3737.785286491313 670.0906364892244  2865.72650037222 2741.45099383581 -667.6343558243937  -5024.543588067544 450.5835239520569 474.0421448379893  1318.443508981444 -4212.825746986441 -580.9525590015155  1443.497196353955 2725.30449780589 767.0923564203219  833.5103591914368 5452.760749788596 196.9937732166677  -3646.79840762915 3540.24081390808 -437.1680011195773  4895.924010739465 -2717.512957303878 -244.8940290882141  -90.48295970333899 1479.041716144526 870.1447409058792  4440.542777263291 -2648.992771435496 423.1582410907614  -5679.108605155274 1343.278534756031 -21.44568915210896  -3023.831348700982 -4824.213623061613 8.870525439132887  -1847.249004793359 -5266.332957365244 -155.6732084071262  5248.227284609959 2488.841075315836 -6.639466396971377  -1315.316801076587 2795.786961975876 766.277622813374  1637.150365295777 2538.924277474998 -774.1415529826024  -1990.040765499738 417.8423634390402 -848.5168564928548  -2141.331579072352 4935.199485083459 297.2860337767193  4979.501765671105 -2527.848801735963 257.7031349772052  -399.2194128111378 -5594.540655508989 -94.26986986837991  -3771.872697921449 1472.692462907776 -663.294060554117  -2583.787660458069 1254.307158127906 -792.2507943875702  -1640.657838259778 4545.477655673888 486.942537553417  -4113.77816078798 -3994.554128209641 -52.49246379997162  0.007345722423136833 0.05883632248871479 -0.02864028162934219  -1881.136424742389 -2223.116381125341 25.03440593313329  2844.283537969004 866.9637981295264 -4.164651231541853  -1133.813759520256 2337.556404134631 199.7905995800979  2120.997600214173 -1657.079302887464 181.7580824353324  -1384.335199101832 242.9278143059771 -401.1615787630935  -2925.516335992347 441.1047064263987 0.2765408584026123  559.3025535396064 2643.745408119668 -173.6504378445475  1977.801364546403 -1303.451435728558 -271.1297043596118  -1539.768294815052 -247.8337374106351 389.4782454664828  1475.01630470017 1967.577088176639 315.5319355874517  -544.6128208334839 -2245.964675537809 -342.4781104070138  486.3064799656427 -3238.846081397388 1.656675457381088  1175.576434053869 862.1839946354157 -446.83
[...]
<PointData  Vectors="Self-Gravity"> 
<DataArray  type="Float64"  Name="Self-Gravity"  NumberOfComponents="3" format="ascii">-5.3479047672522135e-06 -1.6605256267209828e-06 -3.0284148606561439e-04  -3.4946620866000780e-06 -6.5844187671138654e-07 3.0149253508162814e-04  -1.2460052385455443e-05 8.1181853859172866e-07 2.8324053117946373e-04  -2.7691286778385388e-05 2.2138205973363965e-06 2.5584131271877100e-04  -3.1108689948352527e-05 8.5427669237389764e-08 1.3604761537657026e-04  -4.1840215886528651e-05 3.3292952041935801e-06 8.9400382470072599e-05  -4.8386436512781203e-05 -1.2131281275629605e-06 1.8399000322428161e-05  -4.7135732553369820e-05 -2.8303051284707227e-06 -7.8049538447395961e-05  -3.1760853698373075e-05 5.9478770858517239e-07 -1.4743949283753174e-04  -2.8168897687914677e-05 9.2255720347716790e-07 -2.5034126560104204e-04  -1.4420434600261355e-05 4.2619850916520496e-06 -2.7256916933166535e-04  -1.3826820370194893e-05 1.2491706673614753e-05 2.0076067155093958e-04  -1.7990720175803110e-05 -1.2235938501319275e-05 -2.6679070728702640e-04  -5.2396803789981681e-05 1.5963782595915677e-05 3.8978552653897809e-05  -2.9705280790774242e-05 1.4137618495908267e-05 -2.1203549680087687e-04  -3.5165566506318709e-05 -1.2187917570474959e-05 -1.2695691428086839e-04  -3.6142414208200820e-05 -1.3281427929410747e-05 1.3516485423656680e-04  -1.7370181650327617e-05 -1.1464802610470731e-05 2.4167760222436742e-04  -6.0510343953838657e-06 1.0849410688608977e-05 -2.3342061451548402e-04  -3.2496273216786619e-05 1.6388191615785867e-05 2.1686429395585509e-04  -2.2138612828381923e-05 2.7139013419117036e-05 2.1286564335286053e-04  -3.5919331379475902e-05 3.1271100265815005e-05 1.4925659885858008e-04  -2.2144745725907657e-05 3.7509881182642292e-05 1.1806033929941473e-04  -3.5113957609676723e-05 3.8909693228622709e-05 5.6768633566459634e-05  -1.8338135843340130e-05 4.2202726724821149e-05 5.6780056623663795e-05  -3.2494704467011375e-05 4.6970517552375278e-05 -3.1170313459803844e-05  -1.8576449273686609e-05 5.0384747827868482e-05 -3.2133360577656802e-05  -1.4834962848111944e-05 3.0470048679209909e-05 -7.4270256990585447e-05  -6.6507366332427020e-06 4.4535614640018230e-05 -1.0783181474667009e-04  -1.1998392481367950e-05 3.3249658367238520e-05 -1.4167677881235841e-04  1.4676327389975260e-06 4.1950514488379264e-05 -1.6987012655696651e-04  -3.4643418932717584e-05 3.7821363430881204e-05 -9.1017024579717222e-05  -3.7471750939061260e-05 -1.6767438391587572e-05 -2.2792510825480334e-04  -3.2117029151112552e-05 -2.8286858848863149e-05 -1.4010557896337078e-04  -3.4750525009543555e-05 -2.0949394267069315e-05 -7.8989226078748088e-05  -3.8745488339928907e-06 2.9286705069281345e-05 -2.5026162519247504e-04  -1.8794368143810243e-05 2.7061602801632497e-05 -2.3965211284633536e-04  -2.6998716530349490e-05 -2.8786578773507702e-05 -2.2718468757626956e-04  -2.5182511792783020e-05 -3.9136804678635586e-05 -1.3920849138706411e-04  -5.6175702380868070e-05 1.2730126944509124e-05 -5.4818972797127875e-05  -4.5391556458979765e-05 3.1753610380208852e-05 -1.1730969515090244e-05  -4.2177569343534001e-05 1.2570205801828416e-05 1.4206806162326855e-04  -4.8327779160261696e-06 -1.5521957301972356e-05 3.0433121360678810e-04  -3.4033088480867596e-05 -1.3995307895745679e-05 2.2182306174978495e-04  -3.2134317804374547e-05 -2.6637500122464776e-05 1.4512964823743207e-04  -9.5270962890328405e-06 3.5485835699294803e-05 1.0910388932759860e-04  5.3583055272577482e-06 5.4108154177183530e-05 -1.2094008847441160e-04  -9.2805520608365754e-06 2.5115078644922700e-05 2.2790105498115101e-04  -4.0998073079479604e-05 -2.5440677343046835e-05 8.1768256249793730e-05  -3.3843066319634301e-05 -3.7692228704171132e-05 8.5517167548836446e-05  -2.1137732875409788e-05 -3.8701518785503903e-05 1.6017876556301890e-04  -2.2240300367401413e-05 -4.6766708221475462e-05 9.5568155440099964e-05  -6.5888854154822648e-06 -4.6384629740475534e-05 1.8266169008936137e-04  -2.3799175318012305e-06 -5.0348974452558907e-05 9.3802420900781141e-05  8.7251041133702945e-06 -4.6544552267573748e-05 1.4198832837640510e-04  1.2574214637363891e-05 -4.9158848986058456e-05 5.2487456042480140e-05  2.0294897534170215e-05 -4.3487977047671792e-05 1.1790433478310956e-04  2.7308694631892660e-06 -4.9479339907829000e-05 -1.2689475594871121e-05  1.5987668570772926e-05 4.0255458215967468e-05 -1.5722128407618191e-04  1.4862264139621719e-05 3.6135176404621080e-05 -6.8390325047505609e-05  2.7647910978790641e-05 -4.5569319049048604e-05 3.1165781495261093e-05  3.6761107643149490e-05 -3.5208472462998404e-05 8.3039119576514098e-05  3.0711170938621986e-05 -2.8166187434291467e-05 -1.6861401894205829e-05  4.7249197288499822e-05 -2.6918917649121399e-05 4.6971906703483637e-05  4.2532564124714897e-05 -2.0667023698596356e-05 -5.2858432190533403e-05  2.9950590021082044e-05 -1.4049749514719946e-05 1.1244774141278124e-04  3.8475295310307187e-05 -2.8441306648742190e-05 -1.0164062262252452e-04  4.1085716987475153e-05 -6.7312465822988932e-06 8.6012583481643985e-05  3.0470087741689773e-05 -1.2386559055901414e-05 -1.0920058617489878e-04  3.9532108833975896e-05 -3.0480834904638637e-06 1.5967107873387709e-04  4.2931889427186266e-05 5.5183023244824824e-06 1.1360564456872811e-04  3.4915250001035675e-05 -3.1666939121415193e-05 -2.0054957018395049e-04  9.2249041491045155e-06 2.1802355742893834e-05 -2.6824342438177249e-04  2.8043799620651586e-05 3.5770077662124166e-05 -1.3633803974685157e-04  4.0010477626907254e-05 1.0978082766966736e-05 2.2268544359517356e-04  3.7077319419136592e-05 1.9752425002654573e-05 1.5765415918523665e-04  5.1396982472391793e-05 -2.6257334217802407e-06 -7.7163472335794493e-05  1.4228552530336769e-05 -2.7766733743240474e-05 1.5983435394262800e-04  3.1601197548264007e-05 -1.2316024106957685e-05 -1.7955910426235662e-04  -1.0853208238277112e-05 -3.2448617017079999e-05 -2.0721542962716266e-04  4.9308334598453948e-05 1.8849859490203132e-05 4.6259189237613696e-05  3.0101811949257349e-05 -1.8485509800732669e-06 2.5025210492562609e-04  2.2603442613242048e-05 -1.7020165522170937e-05 -2.4237682711016685e-04  1.8027163906511121e-05 1.6304689276713666e-05 1.6982422682105326e-04  2.5203135379387810e-05 3.0505247302510057e-05 1.5559642740292260e-04  2.8884535126983480e-05 -4.0126475164540257e-05 -1.3959006072579040e-04  1.3395987111011241e-05 4.6101330590878116e-05 -2.5251285723241493e-05  2.5306782262222014e-05 -3.7115798953331726e-06 -2.7441510610635387e-04  3.6443288542879128e-05 3.8909003911077160e-06 -2.1723189188187989e-04  1.4027251455471992e-05 3.3322180978162012e-05 1.9413093430160078e-04  1.6578445706077256e-05 4.2239724674543524e-05 1.2072033068609627e-04  1.1928753137756749e-05 2.0721892588106346e-05 2.7383348444789740e-04  -2.5764737900698602e-05 -4.2503409390355556e-05 -1.1017171964327970e-05  3.3263931119872716e-05 3.5087325480729043e-05 -6.8104229470249074e-05  3.5229466789743602e-05 1.9201949391165586e-05 -9.0179099596550034e-05  -1.0359016090853425e-05 -4.4288291378871918e-05 -1.5153768296813903e-04  1.5829214462224912e-06 -4.1303110665414909e-05 -1.9559086833407006e-04  5.1116831269622192e-07 -2.2373053784852342e-05 -2.1182017603187491e-04  1.2420219426223505e-05 -1.2159813600233385e-05 -2.7031171760427637e-04  2.1500722259562743e-05 2.5140541288099287e-05 -2.1159239635689764e-04  -1.2161597619936337e-05 -3.2766975501352735e-05 2.2724183941283895e-04  2.8493023954690007e-05 3.8829604983979943e-05 8.5756843659946113e-05  4.6180693347722152e-06 -2.3501952564952956e-05 2.2714505088719921e-04  8.6982901243154007e-06 -1.6100745914937905e-05 3.1109349294303212e-04  5.9938032035779085e-06 -5.2061088583319108e-05 -1.0412244737056151e-04  8.8744460018518496e-06 2.9672722764304551e-06 -3.0713735052955213e-04  4.1146670058455356e-06 4.3489372483942030e-05 1.8141479638756946e-04  2.0915460964995903e-05 9.0004076485863112e-06 -2.3198206163175291e-04  3.5104955227381916e-05 1.7102073298685240e-05 -2.0123693128313449e-04  3.6923769767542397e-05 8.8360054217497697e-06 -1.1294476554118237e-04  3.4639299173302781e-05 1.1221454111219400e-05 -4.4509805619235666e-05  4.8932440209270252e-05 3.5195961561271182e-06 3.4996798537593093e-05  1.8059355313896541e-05 -2.0214615982870207e-05 2.4825653578772232e-04  2.8900117089295573e-05 -2.9333732087219641e-05 1.9777115096255484e-04  2.0070669983725197e-06 5.1013819486285384e-05 1.2340968651848751e-04  3.2410235471515511e-06 -2.8820145877134311e-05 1.6687020194690327e-04  -2.0970545813033226e-05 -4.8665727480249478e-05 -7.6228086088879111e-05  -4.1546572350275462e-05 1.2103779396224024e-05 -1.0973833941908427e-04  -1.6231923929359912e-07 1.2675349475678349e-05 2.6813524752457546e-04  -6.8526982883298543e-06 5.2776858246768797e-05 5.5039821387551148e-05  1.6481306791706331e-05 -2.9506267769622073e-05 -2.1750328272164164e-04  -5.2039958801940506e-05 -1.3201192422374836e-05 5.7473967358481550e-05  -3.5680228517209377e-05 -4.0397476965808808e-05 -8.3120742528884492e-05  -3.7804963714566610e-05 -3.7005925708936727e-05 -2.5390984913461138e-05  4.0633094578258083e-05 3.0798206282472988e-05 7.4445350899220538e-05  2.1390585689011948e-05 -5.6375148449845049e-05 -2.1141944601608158e-05  2.8218597104710412e-05 -3.7421693489481179e-05 -5.1223233079790868e-05  4.1099943648518830e-06 3.0794916850034570e-05 2.3940962584095927e-04  9.4437220097502887e-06 6.9216433242875643e-06 3.1360878751877117e-04  1.7906620884804800e-05 9.9743326329534941e-06 2.1236357627894571e-04  -1.2630691981175491e-05 -5.4857336182955165e-05 1.9087391661999835e-05  -5.1737849722965213e-06 5.1089646908501192e-05 -4.0417008905934498e-05  -2.8961546708173981e-05 3.1916461005193110e-05 -1.6637526137888885e-04  -5.2044981610070976e-05 -1.4787662670553103e-05 -4.0034601976481720e-05  -1.8869859215425796e-05 1.1621230807534393e-05 -2.4279300641814227e-04  4.5233548724554095e-05 2.8478771544456783e-05 -5.7937319052865929e-06  5.5617646378211029e-06 2.5913062741496268e-05 -1.8804703015602831e-04  -2.3578092903160476e-05 -2.5270471595220069e-05 2.2349626298269728e-04  4.4705217652748051e-05 -2.5932064064593554e-06 -1.6310965025834775e-04  -1.1724941136326994e-05 3.7368948665636476e-05 1.8432263228302086e-04  -1.0122268613454080e-05 -2.1271346968765873e-05 -2.5181573997207755e-04  -6.9982652778828401e-06 -4.8481162500284522e-05 -6.6496552957059259e-05  3.1829503746313973e-05 -3.4991871114176003e-05 1.7417332093703101e-04  -4.7740065017365325e-05 3.0152715130039250e-05 6.5345725582523906e-05  -2.7311659049343648e-06 -1.3471059235382992e-05 -2.8229408039547830e-04  -3.7170331033442247e-05 2.2143079061194652e-05 -1.5177534072550721e-04  4.8233061033558237e-05 -1.2779355470420813e-05 1.1796507913628243e-05  2.5234557922598955e-05 4.6171908641468615e-05 -4.8616178442319525e-06  1.1891373225818025e-05 3.3949057487038231e-05 4.9343964840664834e-05  -4.2722413287969408e-05 -2.3818217116092396e-05 -1.5313580531030132e-05  9.5706586730759560e-06 -1.6465522435816473e-05 -2.4890812118485972e-04  -1.0009078110413594e-05 -2.5174689113035870e-05 2.6465821396815436e-04  2.2419645810556403e-05 1.1255967702821649e-06 2.9618475997076840e-04  2.0503567592423877e-05 -4.6375845492361184e-05 -8.3226700268728779e-05  -4.9768360711038995e-05 2.7477218705796781e-05 -8.8372845814205581e-05  4.6046629058265836e-06 4.8381668523532576e-05 1.0480758355785837e-05  3.6122481717358173e-05 -1.5125715193126317e-05 2.6122308751529318e-04  2.0845082279510002e-05 -9.4437857125628805e-06 2.7882358671290681e-04  1.6651444373190297e-05 -4.5025272152630039e-05 -1.5710423828768486e-04  3.8834614129167016e-05 4.1402028989231298e-05 8.9231122468142595e-06  1.3001078315662426e-06 5.9257101094908649e-06 -1.0253028776673942e-05  2.1398132690124798e-05 2.4141595277726802e-05 -1.9805655908527705e-05  -3.5274602508470315e-05 -8.3239302256834996e-06 -9.1671992952780298e-06  1.5695889344916485e-05 -2.7805287551051460e-05 -1.0820178014397900e-04  -2.4100132492731514e-05 1.9231590584253044e-05 -8.3162471776336666e-05  1.2247412853659803e-05 -4.9083044970345807e-06 1.8797320354061871e-04  3.1183396067357306e-05 -5.7203961258175542e-06 -1.0700031233974294e-05  -6.8275760894750699e-06 -3.3765915105764189e-05 1.0656728051803980e-04  -2.2090760471142615e-05 1.6301631058101044e-05 1.0620797030827193e-04  1.6458436735086647e-05 5.1418047003826287e-06 -1.7721058184196140e-04  -1.8093196451802170e-05 -2.5388626354582148e-05 -1.7909897947945464e-04  6.7074966830180161e-06 2.2298594239666587e-05 1.2936399985747285e-04  -5.0142145462648437e-06 3.1156344412203392e-05 7.8959860910831557e-06  -1.3725569383106281e-05 -1.1982531742175111e-05 2.3661360891933479e-04  5.8316222403472085e-06 2.3663130720195594e-05 -1.4953018516987738e-04  -9.1031181200083719e-06 7.9097680151732087e-06 -2.2816020647848563e-04  1.9692421950954334e-05 -2.5255882481990428e-05 7.0337192740436988e-05  3.1674859566508380e-05 1.5524796569845552e-05 8.2999817196001497e-05  -2.9893017843955385e-05 -4.2754379908462896e-07 -1.5046447841958257e-04  3.8639927739816380e-06 -1.8401390623966081e-05 -2.3667795877789570e-04  -7.9894823138454219e-06 -4.3590403978247563e-05 -8.8762971413442946e-05  -2.8185068805570079e-05 -2.6573469208087227e-05 1.4285912650925027e-04  -2.5247919735529907e-05 -3.4533568908844577e-05 -8.2728401169485980e-07  3.2410357089094591e-05 -1.3956894731226098e-05 -1.6408472743201019e-04  -4.4684795930088278e-05 1.4493723906735317e-05 1.7121954426795268e-05  6.0442340110630458e-06 -2.7737676982454303e-05 2.0891088747911247e-04  3.8639355549527016e-05 1.4634285548036409e-05 -9.9594429469585582e-05  -3.4970736034757955e-05 -3.9704888468847851e-06 1.3331502054905698e-04  -3.0431876597846181e-05 3.6696957647141642e-05 2.9611339555391090e-05  3.4951350980916088e-05 -1.1728133381488046e-05 1.4209726928771931e-04  -8.2180026992009311e-06 1.1204136276268493e-05 2.1692419468927998e-04  1.3285402818789534e-05 4.1067068287081188e-05 8.8349355789291682e-05  1.2591163893475555e-05 4.4641363941239262e-05 -8.6170636492315434e-05  -1.4182478585219353e-05 3.8084826244243573e-05 -1.2168728925195449e-04  3.2091651007988980e-05 -3.3814970322598548e-05 -2.7811195433502394e-05  -1.2326588810257250e-05 3.6336993895040222e-05 1.5586369874521870e-04  1.0741922584221185e-05 -4.4671998771193842e-05 2.3375158822528109e-05  2.0227387187768183e-05 1.5443016257981307e-05 2.2553902845678421e-04  -3.7350909507376313e-05 -2.2940373304891536e-05 -1.0872996970027577e-04  -5.6797304647186791e-06 -1.7137203032825245e-05 -8.7686364813712754e-05  -1.2926129477168961e-05 -8.4581382101920307e-06 1.1388125793329974e-04  </DataArray> 
</PointData> 
</Piece>
</UnstructuredGrid>
</VTKFile>