<?xml version="1.0"?>
<VTKFile type="UnstructuredGrid"  version="0.1"  >
<UnstructuredGrid>
<Piece  NumberOfPoints="201" NumberOfCells="657">
<Points>
<DataArray  type="Float64"  NumberOfComponents="3"  format="ascii">-0.2904064758781372 -0.1334546696117645 899.1941413698128  -0.1464023475989398 -0.0199441355985498 -899.4671147264874  1824.539110808509 0.05229348393700797 -859.0719373088363  3461.901922258894 -0.0336765896927776 -738.4375302906091  4749.181970167182 -0.05228260828369937 -545.0354376239098  5568.38162053746 -0.08433620712786735 -289.4097860290689  5849.410551245769 -0.2413968417600329 0.09101083990874044  5568.461098713112 -0.2928179352669232 289.3497012049788  4749.163175324731 -0.1377961489317217 544.8364707294577  3461.804193229769 -0.07723836556678279 738.5298013854083  1824.566112936227 0.15340815449579 858.7236206482777  2308.073637872958 -1711.549725615554 -790.5725459813639  2294.277693721397 1329.830044732233 808.3876027608201  5569.15296822711 -1512.503167872254 -139.3316169481078  4027.541279798523 -1657.177300872092 615.1488766977734  5073.480990765362 1532.090535547435 392.7973423885032  5052.84799706891 1531.732417091052 -399.4186096770735  2576.64070052548 1531.612844089447 -780.7960566761891  889.3228414663974 -1534.240971163659 858.9867538687706  4002.013936348145 -1527.390847638504 -627.4451232135534  2786.58007137645 -2997.941853532622 -647.3962311862388  4129.689019251381 -2930.566374561107 -451.1526126563862  2830.800301909313 -4188.451956208086 -433.8710065714263  3981.911509584346 -3923.878266926396 -215.1749297170385  2498.23224000963 -4977.814721600163 -182.8080926470367  3555.81729024373 -4465.236619305552 46.35853417327269  1867.619401180438 -5316.985972678623 83.38953682831401  2712.120750708551 -4623.643313783227 315.6275340041399  977.1597984100541 -5182.495624430851 335.1388015099876  1739.970628873583 -4236.834786321901 548.6679811688507  -67.67705859666292 -4551.214060235359 549.6055087178139  4158.417442371865 -3630.950597152182 266.4957606875114  4002.412288210435 1527.15414019346 627.4275023918883  4046.542439253136 2950.197834683429 466.4994400688368  4889.936603403037 2821.204224585228 212.8395141565814  652.5716013669658 -3391.471914459671 725.0298094899415  2389.086899096223 -2971.742419541417 686.0213554190376  2787.222071182591 2827.635582850531 666.6148809108249  2678.334375064603 4125.468240124199 472.4132012436799  5580.008857203127 -1475.737493139512 139.3779963630451  4919.19752989026 -3048.498111752645 16.20976125866224  5084.98416573526 -1533.490346607089 -388.7688773302112  889.3297234647617 1534.311917103706 -858.6681509197025  3962.947649361349 1489.34383074492 -635.7700699598319  4015.632693542084 2934.567717160279 -475.6020244180908  1213.829461243889 -5029.629922392277 -376.9776551987298  -849.4991387227527 -5243.855324607835 317.5254082967699  1190.993563907059 -3080.270030431738 -743.5500207339721  4856.824988108829 2855.376645504924 -219.9716949810736  3632.781306783427 4125.460422856005 -264.5873022625644  2585.459567622622 4024.131083635441 -507.4161118647445  2036.907837936764 5001.619757232532 -284.8345426541427  901.7342800997779 4705.555156822335 -494.068786425539  263.1413290731736 5414.128188387881 -258.6175164435041  -923.9879809704632 4839.834160948813 -456.6272049065731  -1521.537744399837 5315.40393326954 -195.3979618466243  -2684.246659524577 4544.232853276484 -351.8898999322954  -292.8124774985295 5626.96364204156 17.42102606071371  -1874.384765199349 -4372.869294436236 507.7832024760765  -2582.77427080227 -4824.822553790022 253.8664160649897  -3147.449471128917 4716.169651316112 -95.6924452018775  -4159.376882352341 3691.456950132265 -242.1047562845939  -4427.311462996306 3680.495872429862 21.702055833329  -5195.29170346644 2428.617985775904 -151.5841372660138  -5266.076440368553 2305.179085448538 141.1778487508872  -4623.591812383888 2306.29276716681 -428.2923615150308  -4262.180793159188 3409.359481855065 303.4885310489444  -5498.627792893421 1007.944221314556 -274.656685057932  -4873.073654553421 1898.309618634434 412.5558786591712  -4693.308448449847 648.9741605304172 -546.5617399150946  -5260.41368798406 -732.54906855071 -392.8869271604273  -3631.939513182366 2866.435613284416 555.8716229735752  -814.9382608889704 -2353.80011600647 815.1426196263956  -3531.991178677104 -3736.058613158878 416.0013599268481  -4222.173588716189 -994.7831031872325 -620.5692619691924  -4550.811318187489 -2329.819928930851 -444.2051412017091  -5623.518297667869 639.8481976057425 237.1847136621109  -1964.634104796315 3774.699534372542 -614.2785713167306  -4021.946909722467 1225.673687064997 641.5344873039841  1264.826067375083 3816.364465871836 650.2583560370257  -5416.148190037445 -1904.740632426681 -159.4099603036684  -3427.941446764324 398.25788362114 -739.8410615499954  -2670.498301183517 2187.787451463815 733.9133439623351  -3288.451441716005 -2513.06546061836 -644.6127861575688  -3434.181680481623 -3731.531771229553 -437.1569147085016  -2893.601584340353 4201.791486140038 419.7097918582906  -1474.639611320366 -5441.483532920782 60.54845711902669  -2816.056539707863 368.6923244667778 795.7471035252962  -4149.071075001664 -531.0279849438945 646.3196372541728  -1986.846501882031 -3750.795777790119 -616.0458299059123  -1987.856631399378 -4768.629474509584 -386.4896320688508  -1717.391553817104 -2382.342986618884 -782.0727916122086  2966.55780040245 4853.774200611612 -26.51663358599735  -3990.491066214697 -4000.608270217103 166.3210725292485  -4807.227696808756 -2703.342112629501 290.6166354409059  1049.925065487744 4899.714161025441 432.047316274068  -380.0402084847184 4426.490996860748 572.2431226866646  -131.9560217299849 3344.196018069624 737.5258079925677  -1598.863883393976 1416.221059334979 841.3770543030375  -2656.448941047302 -3064.766809005339 652.411937696501  1386.730971800296 3731.7568911008 -656.6785873443011  -3280.667791412638 -4504.44090117634 -204.7507180255404  -436.3337437011405 2869.222666531439 -781.7244180479582  -969.123530166864 1232.415766550888 -868.418896504547  -651.9350488241827 5269.730508833436 317.3288835935883  -1247.769380037999 -872.9408727707372 870.3753053467473  -424.2198433783867 -4632.942321110479 -527.0819597001857  -2690.346614807833 -1399.085219526207 778.2752033406772  -4131.67731686063 -2244.184523129987 545.7288425492769  -5134.559835948437 -1076.794414896031 413.2987758351464  -5607.597789840863 -1395.52330598767 131.9509098086576  -5823.99160300922 -181.305984918299 -81.78752067004365  -2262.530190464324 2436.071840923044 -746.0690057488147  -3423.115380043178 2688.140518013009 -608.7087359445178  -498.6077038853152 -5309.669386382679 -306.0748458462786  -199.975743764221 4182.011682004759 -620.4813224410135  2334.402158468241 4956.632259518918 244.5977028568042  5051.60873802618 -1465.659927249403 406.3070403049704  294.616834716909 -1610.23064549044 -864.0973120295688  924.8661273664709 -5497.651622811138 -144.6128843283279  -1790.491285881858 3617.665325738833 649.8195319099093  5592.91996020692 1417.892958086 -142.3116643114565  3739.956730156304 4087.454415036051 241.3038506220384  4409.062737439957 3702.077793681009 -10.73279287019934  -4469.141987637757 -3350.977431314686 -236.9177262299895  -1938.517360222226 5299.156855448002 73.09805805838526  -3252.835812580422 4570.91502428104 171.658457869605  -319.3592194378715 -3466.92878907334 -721.5711546681051  -1376.247172804935 -634.4830763527326 -871.4470406562328  -2895.319830778682 -1016.12736807364 -775.8517504919537  1351.37074781923 5475.419847387196 -48.11272649202226  157.9159909506742 -5599.009550407684 104.3800837422281  3239.829458597455 -3570.595882209108 505.068968414454  5602.499599034057 1436.092786246284 126.2977807988374  2577.867855848825 -1520.502982591206 781.4584920832758  -4947.975155266238 -3003.096772932545 23.19476578898459  -1053.08542501765 -3737.785286491313 670.0906364892244  2865.72650037222 2741.45099383581 -667.6343558243937  -5024.543588067544 450.5835239520569 474.0421448379893  1318.443508981444 -4212.825746986441 -580.9525590015155  1443.497196353955 2725.30449780589 767.0923564203219  833.5103591914368 5452.760749788596 196.9937732166677  -3646.79840762915 3540.24081390808 -437.1680011195773  4895.924010739465 -2717.512957303878 -244.8940290882141  -90.48295970333899 1479.041716144526 870.1447409058792  4440.542777263291 -2648.992771435496 423.1582410907614  -5679.108605155274 1343.278534756031 -21.44568915210896  -3023.831348700982 -4824.213623061613 8.870525439132887  -1847.249004793359 -5266.332957365244 -155.6732084071262  5248.227284609959 2488.841075315836 -6.639466396971377  -1315.316801076587 2795.786961975876 766.277622813374  1637.150365295777 2538.924277474998 -774.1415529826024  -1990.040765499738 417.8423634390402 -848.5168564928548  -2141.331579072352 4935.199485083459 297.2860337767193  4979.501765671105 -2527.848801735963 257.7031349772052  -399.2194128111378 -5594.540655508989 -94.26986986837991  -3771.872697921449 1472.692462907776 -663.294060554117  -2583.787660458069 1254.307158127906 -792.2507943875702  -1640.657838259778 4545.477655673888 486.942537553417  -4113.77816078798 -3994.554128209641 -52.49246379997162  0.007345722423136833 0.05883632248871479 -0.02864028162934219  -1881.136424742389 -2223.116381125341 25.03440593313329  2844.283537969004 866.9637981295264 -4.164651231541853  -1133.813759520256 2337.556404134631 199.7905995800979  2120.997600214173 -1657.079302887464 181.7580824353324  -1384.335199101832 242.9278143059771 -401.1615787630935  -2925.516335992347 441.1047064263987 0.2765408584026123  559.3025535396064 2643.745408119668 -173.6504378445475  1977.801364546403 -1303.451435728558 -271.1297043596118  -1539.768294815052 -247.8337374106351 389.4782454664828  1475.01630470017 1967.577088176639 315.5319355874517  -544.6128208334839 -2245.964675537809 -342.4781104070138  486.3064799656427 -3238.846081397388 1.656675457381088  1175.576434053869 862.1839946354157 -446.83
[...]
<PointData  Scalars="Pressure"> 
<DataArray  type="Float64"  Name="Pressure"  format="ascii">-1.3555448616920146e-01  -1.3612044859742900e-01  -1.2716166783542138e-01  -9.7132842163559635e-02  -5.5150120669378633e-02  -2.8969800781888242e-02  -1.8779578367255766e-02  -2.7859212173825060e-02  -5.6407770293931660e-02  -9.7724206930030810e-02  -1.2902669406938899e-01  -1.1240059112055426e-01  -1.1157581875985789e-01  -1.9484943487144468e-02  -7.0089869207779959e-02  -3.7875478291887102e-02  -3.9362598087251101e-02  -1.0732560499989696e-01  -1.3012889347933643e-01  -7.3148819265695761e-02  -7.6766503768268213e-02  -4.3477738201143271e-02  -4.2993756885247342e-02  -2.3155950255567038e-02  -2.3949672206497744e-02  -1.7034401380042211e-02  -1.9959584376743642e-02  -3.2528960488065251e-02  -3.5763613595773167e-02  -5.8973291501154212e-02  -5.7833096462718094e-02  -2.8033150973823175e-02  -7.1139225388251376e-02  -4.8698625148069649e-02  -2.6060780715744601e-02  -9.4572858048220659e-02  -8.7124024383138945e-02  -7.7777761640647980e-02  -4.7496943675899309e-02  -1.7528680846656312e-02  -1.7490949005842665e-02  -3.8757629781852626e-02  -1.2814574846618537e-01  -7.3047005019468494e-02  -4.7524833962717519e-02  -3.9678983767593649e-02  -3.3368397598456688e-02  -9.7877604610870472e-02  -2.3775499251708035e-02  -2.6717355164432688e-02  -5.2042363350066137e-02  -3.0649120583826545e-02  -4.9815833198218196e-02  -2.8740015614762977e-02  -4.6691671790926516e-02  -2.3296511453803102e-02  -3.4348628011704491e-02  -1.9990778854602782e-02  -5.4116243714009943e-02  -2.8007603269806919e-02  -2.0071891480692557e-02  -2.5420845780602275e-02  -1.7880174011649846e-02  -2.0102597656506821e-02  -2.1858484205747097e-02  -4.1503723876870610e-02  -2.8066813681294558e-02  -2.7965992707478432e-02  -4.0972547249562355e-02  -5.5505841483469140e-02  -3.8837933362025408e-02  -5.6551677388901558e-02  -1.1399325416038050e-01  -4.0326482768042335e-02  -7.0580181683572663e-02  -4.3791033545436876e-02  -2.3016463421205089e-02  -7.2266291706521560e-02  -7.5028369814459706e-02  -7.8107510522541015e-02  -1.8033693760519547e-02  -9.5788621869122695e-02  -9.4818422637600430e-02  -7.6564080453459138e-02  -4.5110245602809310e-02  -4.3847743651633193e-02  -1.9134707983937807e-02  -1.0987523018338868e-01  -7.3988375376980275e-02  -7.2171883528199102e-02  -3.6787670041106127e-02  -1.0928915468100554e-01  -2.0016049131999135e-02  -2.5107526832579181e-02  -2.7388174531377207e-02  -4.4780681236087916e-02  -6.4325115425546336e-02  -9.6714796921544513e-02  -1.2213426066509084e-01  -7.8109356434138813e-02  -7.9000738044711388e-02  -2.6623569185089131e-02  -1.1192955855591630e-01  -1.2525395828464239e-01  -3.2692058621839576e-02  -1.3209294723240539e-01  -5.5681902738229046e-02  -1.0563846591334981e-01  -6.2486202612958605e-02  -3.6545629226755111e-02  -2.0362124911527130e-02  -1.6325818675385396e-02  -9.7098808887960297e-02  -6.6812001726680240e-02  -3.2619201211401751e-02  -7.2666948085884656e-02  -2.7088926063557069e-02  -4.0506195350753435e-02  -1.3264856111482892e-01  -2.1631927798665129e-02  -7.7819905810401019e-02  -1.8132915546919058e-02  -2.4630434558609818e-02  -1.6620674512375179e-02  -2.4826376722934168e-02  -2.0061437200537175e-02  -2.3197948268428671e-02  -9.6306626468904991e-02  -1.2780694723054409e-01  -1.0903399680588521e-01  -2.0211522014026297e-02  -2.1385200566380450e-02  -4.9490926081143562e-02  -1.8008617947304358e-02  -1.0575741124101323e-01  -1.5855052386599955e-02  -8.2074644803390634e-02  -8.2341493529972054e-02  -4.5914630763394110e-02  -6.4160994069480129e-02  -1.0674835496586173e-01  -2.6331724931168324e-02  -4.2642734029591997e-02  -2.5617326062365046e-02  -1.3537701945907826e-01  -4.3690640604322914e-02  -1.6493327252372764e-02  -1.9032540151764331e-02  -2.2354269844676981e-02  -1.9659855460685750e-02  -1.0386322776535289e-01  -1.0270763629894802e-01  -1.2086445712672829e-01  -2.9146419098060736e-02  -2.6432398276406713e-02  -2.1295182864695929e-02  -7.9442547635758309e-02  -1.0746386189152346e-01  -4.6832829850390320e-02  -2.4007214309598488e-02  2.2918161534065173e-02  9.7935244808852236e-03  1.1256536067464799e-02  3.7664768327679032e-03  6.0915645124333230e-03  -1.0313548113615222e-02  1.5283573351687433e-02  8.9888819909565154e-03  -1.1333881917263606e-03  -7.7534629784786419e-03  -4.7881922619615125e-03  -8.3651471265439748e-03  8.5848096207189577e-03  -1.8339720550710183e-02  -1.0570389258420996e-02  -2.2766959170597643e-02  2.6553277292221526e-03  -2.2405169590859180e-03  -7.6619910020196908e-03  -3.1446698086937890e-02  4.6973671544964599e-03  -6.2082339378912877e-03  4.2479124787055565e-03  -8.0298605464083506e-03  6.7450036456275821e-03  -2.8122705159224361e-02  -8.9879072383785034e-04  -8.8815311919711315e-03  3.1800315399800510e-03  -7.6704433434685486e-03  -3.8927949037454862e-02  -3.1988534123220894e-04  3.1629810750601520e-05  -8.3872743600760403e-03  1.5499661016045304e-03  -9.4256789586196783e-03  8.4359446371363674e-04  -3.6082902535347100e-02  -5.4197094129175647e-03  2.0211171481432019e-02  1.8181427403166018e-02  </DataArray> 
</PointData> 
</Piece>
</UnstructuredGrid>
</VTKFile>