<?xml version="1.0"?>
<VTKFile type="UnstructuredGrid"  version="0.1"  >
<UnstructuredGrid>
<Piece  NumberOfPoints="201" NumberOfCells="657">
<Points>
<DataArray  type="Float64"  NumberOfComponents="3"  format="ascii">-0.2904064758781372 -0.1334546696117645 899.1941413698128  -0.1464023475989398 -0.0199441355985498 -899.4671147264874  1824.539110808509 0.05229348393700797 -859.0719373088363  3461.901922258894 -0.0336765896927776 -738.4375302906091  4749.181970167182 -0.05228260828369937 -545.0354376239098  5568.38162053746 -0.08433620712786735 -289.4097860290689  5849.410551245769 -0.2413968417600329 0.09101083990874044  5568.461098713112 -0.2928179352669232 289.3497012049788  4749.163175324731 -0.1377961489317217 544.8364707294577  3461.804193229769 -0.07723836556678279 738.5298013854083  1824.566112936227 0.15340815449579 858.7236206482777  2308.073637872958 -1711.549725615554 -790.5725459813639  2294.277693721397 1329.830044732233 808.3876027608201  5569.15296822711 -1512.503167872254 -139.3316169481078  4027.541279798523 -1657.177300872092 615.1488766977734  5073.480990765362 1532.090535547435 392.7973423885032  5052.84799706891 1531.732417091052 -399.4186096770735  2576.64070052548 1531.612844089447 -780.7960566761891  889.3228414663974 -1534.240971163659 858.9867538687706  4002.013936348145 -1527.390847638504 -627.4451232135534  2786.58007137645 -2997.941853532622 -647.3962311862388  4129.689019251381 -2930.566374561107 -451.1526126563862  2830.800301909313 -4188.451956208086 -433.8710065714263  3981.911509584346 -3923.878266926396 -215.1749297170385  2498.23224000963 -4977.814721600163 -182.8080926470367  3555.81729024373 -4465.236619305552 46.35853417327269  1867.619401180438 -5316.985972678623 83.38953682831401  2712.120750708551 -4623.643313783227 315.6275340041399  977.1597984100541 -5182.495624430851 335.1388015099876  1739.970628873583 -4236.834786321901 548.6679811688507  -67.67705859666292 -4551.214060235359 549.6055087178139  4158.417442371865 -3630.950597152182 266.4957606875114  4002.412288210435 1527.15414019346 627.4275023918883  4046.542439253136 2950.197834683429 466.4994400688368  4889.936603403037 2821.204224585228 212.8395141565814  652.5716013669658 -3391.471914459671 725.0298094899415  2389.086899096223 -2971.742419541417 686.0213554190376  2787.222071182591 2827.635582850531 666.6148809108249  2678.334375064603 4125.468240124199 472.4132012436799  5580.008857203127 -1475.737493139512 139.3779963630451  4919.19752989026 -3048.498111752645 16.20976125866224  5084.98416573526 -1533.490346607089 -388.7688773302112  889.3297234647617 1534.311917103706 -858.6681509197025  3962.947649361349 1489.34383074492 -635.7700699598319  4015.632693542084 2934.567717160279 -475.6020244180908  1213.829461243889 -5029.629922392277 -376.9776551987298  -849.4991387227527 -5243.855324607835 317.5254082967699  1190.993563907059 -3080.270030431738 -743.5500207339721  4856.824988108829 2855.376645504924 -219.9716949810736  3632.781306783427 4125.460422856005 -264.5873022625644  2585.459567622622 4024.131083635441 -507.4161118647445  2036.907837936764 5001.619757232532 -284.8345426541427  901.7342800997779 4705.555156822335 -494.068786425539  263.1413290731736 5414.128188387881 -258.6175164435041  -923.9879809704632 4839.834160948813 -456.6272049065731  -1521.537744399837 5315.40393326954 -195.3979618466243  -2684.246659524577 4544.232853276484 -351.8898999322954  -292.8124774985295 5626.96364204156 17.42102606071371  -1874.384765199349 -4372.869294436236 507.7832024760765  -2582.77427080227 -4824.822553790022 253.8664160649897  -3147.449471128917 4716.169651316112 -95.6924452018775  -4159.376882352341 3691.456950132265 -242.1047562845939  -4427.311462996306 3680.495872429862 21.702055833329  -5195.29170346644 2428.617985775904 -151.5841372660138  -5266.076440368553 2305.179085448538 141.1778487508872  -4623.591812383888 2306.29276716681 -428.2923615150308  -4262.180793159188 3409.359481855065 303.4885310489444  -5498.627792893421 1007.944221314556 -274.656685057932  -4873.073654553421 1898.309618634434 412.5558786591712  -4693.308448449847 648.9741605304172 -546.5617399150946  -5260.41368798406 -732.54906855071 -392.8869271604273  -3631.939513182366 2866.435613284416 555.8716229735752  -814.9382608889704 -2353.80011600647 815.1426196263956  -3531.991178677104 -3736.058613158878 416.0013599268481  -4222.173588716189 -994.7831031872325 -620.5692619691924  -4550.811318187489 -2329.819928930851 -444.2051412017091  -5623.518297667869 639.8481976057425 237.1847136621109  -1964.634104796315 3774.699534372542 -614.2785713167306  -4021.946909722467 1225.673687064997 641.5344873039841  1264.826067375083 3816.364465871836 650.2583560370257  -5416.148190037445 -1904.740632426681 -159.4099603036684  -3427.941446764324 398.25788362114 -739.8410615499954  -2670.498301183517 2187.787451463815 733.9133439623351  -3288.451441716005 -2513.06546061836 -644.6127861575688  -3434.181680481623 -3731.531771229553 -437.1569147085016  -2893.601584340353 4201.791486140038 419.7097918582906  -1474.639611320366 -5441.483532920782 60.54845711902669  -2816.056539707863 368.6923244667778 795.7471035252962  -4149.071075001664 -531.0279849438945 646.3196372541728  -1986.846501882031 -3750.795777790119 -616.0458299059123  -1987.856631399378 -4768.629474509584 -386.4896320688508  -1717.391553817104 -2382.342986618884 -782.0727916122086  2966.55780040245 4853.774200611612 -26.51663358599735  -3990.491066214697 -4000.608270217103 166.3210725292485  -4807.227696808756 -2703.342112629501 290.6166354409059  1049.925065487744 4899.714161025441 432.047316274068  -380.0402084847184 4426.490996860748 572.2431226866646  -131.9560217299849 3344.196018069624 737.5258079925677  -1598.863883393976 1416.221059334979 841.3770543030375  -2656.448941047302 -3064.766809005339 652.411937696501  1386.730971800296 3731.7568911008 -656.6785873443011  -3280.667791412638 -4504.44090117634 -204.7507180255404  -436.3337437011405 2869.222666531439 -781.7244180479582  -969.123530166864 1232.415766550888 -868.418896504547  -651.9350488241827 5269.730508833436 317.3288835935883  -1247.769380037999 -872.9408727707372 870.3753053467473  -424.2198433783867 -4632.942321110479 -527.0819597001857  -2690.346614807833 -1399.085219526207 778.2752033406772  -4131.67731686063 -2244.184523129987 545.7288425492769  -5134.559835948437 -1076.794414896031 413.2987758351464  -5607.597789840863 -1395.52330598767 131.9509098086576  -5823.99160300922 -181.305984918299 -81.78752067004365  -2262.530190464324 2436.071840923044 -746.0690057488147  -3423.115380043178 2688.140518013009 -608.7087359445178  -498.6077038853152 -5309.669386382679 -306.0748458462786  -199.975743764221 4182.011682004759 -620.4813224410135  2334.402158468241 4956.632259518918 244.5977028568042  5051.60873802618 -1465.659927249403 406.3070403049704  294.616834716909 -1610.23064549044 -864.0973120295688  924.8661273664709 -5497.651622811138 -144.6128843283279  -1790.491285881858 3617.665325738833 649.8195319099093  5592.91996020692 1417.892958086 -142.3116643114565  3739.956730156304 4087.454415036051 241.3038506220384  4409.062737439957 3702.077793681009 -10.73279287019934  -4469.141987637757 -3350.977431314686 -236.9177262299895  -1938.517360222226 5299.156855448002 73.09805805838526  -3252.835812580422 4570.91502428104 171.658457869605  -319.3592194378715 -3466.92878907334 -721.5711546681051  -1376.247172804935 -634.4830763527326 -871.4470406562328  -2895.319830778682 -1016.12736807364 -775.8517504919537  1351.37074781923 5475.419847387196 -48.11272649202226  157.9159909506742 -5599.009550407684 104.3800837422281  3239.829458597455 -3570.595882209108 505.068968414454  5602.499599034057 1436.092786246284 126.2977807988374  2577.867855848825 -1520.502982591206 781.4584920832758  -4947.975155266238 -3003.096772932545 23.19476578898459  -1053.08542501765 -3737.785286491313 670.0906364892244  2865.72650037222 2741.45099383581 -667.6343558243937  -5024.543588067544 450.5835239520569 474.0421448379893  1318.443508981444 -4212.825746986441 -580.9525590015155  1443.497196353955 2725.30449780589 767.0923564203219  833.5103591914368 5452.760749788596 196.9937732166677  -3646.79840762915 3540.24081390808 -437.1680011195773  4895.924010739465 -2717.512957303878 -244.8940290882141  -90.48295970333899 1479.041716144526 870.1447409058792  4440.542777263291 -2648.992771435496 423.1582410907614  -5679.108605155274 1343.278534756031 -21.44568915210896  -3023.831348700982 -4824.213623061613 8.870525439132887  -1847.249004793359 -5266.332957365244 -155.6732084071262  5248.227284609959 2488.841075315836 -6.639466396971377  -1315.316801076587 2795.786961975876 766.277622813374  1637.150365295777 2538.924277474998 -774.1415529826024  -1990.040765499738 417.8423634390402 -848.5168564928548  -2141.331579072352 4935.199485083459 297.2860337767193  4979.501765671105 -2527.848801735963 257.7031349772052  -399.2194128111378 -5594.540655508989 -94.26986986837991  -3771.872697921449 1472.692462907776 -663.294060554117  -2583.787660458069 1254.307158127906 -792.2507943875702  -1640.657838259778 4545.477655673888 486.942537553417  -4113.77816078798 -3994.554128209641 -52.49246379997162  0.007345722423136833 0.05883632248871479 -0.02864028162934219  -1881.136424742389 -2223.116381125341 25.03440593313329  2844.283537969004 866.9637981295264 -4.164651231541853  -1133.813759520256 2337.556404134631 199.7905995800979  2120.997600214173 -1657.079302887464 181.7580824353324  -1384.335199101832 242.9278143059771 -401.1615787630935  -2925.516335992347 441.1047064263987 0.2765408584026123  559.3025535396064 2643.745408119668 -173.6504378445475  1977.801364546403 -1303.451435728558 -271.1297043596118  -1539.768294815052 -247.8337374106351 389.4782454664828  1475.01630470017 1967.577088176639 315.5319355874517  -544.6128208334839 -2245.964675537809 -342.4781104070138  486.3064799656427 -3238.846081397388 1.656675457381088  1175.576434053869 862.1839946354157 -446.83
[...]
<PointData  Vectors="Forcing"> 
<DataArray  type="Float64"  Name="Forcing"  NumberOfComponents="3" format="ascii">-5.3516832688274400e-06 -1.6621464834844113e-06 -3.0284148606561439e-04  -3.4965709503685127e-06 -6.5863144582792554e-07 3.0149253508162814e-04  3.1123051222373511e-05 7.8461549856717535e-07 2.8324053117946373e-04  5.5102206287773744e-05 2.1655215786550364e-06 2.5584131271877100e-04  8.2646764662073184e-05 2.8395989075996519e-08 1.3604761537657026e-04  9.1697373140909081e-05 3.2705470888640774e-06 8.9400382470072599e-05  9.1950981915717815e-05 -1.2737774167524643e-06 1.8399000322428161e-05  8.6402862656254472e-05 -2.8919389757958343e-06 -7.8049538447395961e-05  8.1994256037999370e-05 5.3660688833625331e-07 -1.4743949283753174e-04  5.4623268494690228e-05 8.7376588268650275e-07 -2.5034126560104204e-04  2.9163060772489656e-05 4.2360236560968997e-06 -2.7256916933166535e-04  4.1324394079488625e-05 -2.8505395727867954e-05 2.0076067155093958e-04  3.6855939438750768e-05 1.9553870412269652e-05 -2.6679070728702640e-04  8.1188536014267459e-05 -2.0412881271350193e-05 3.8978552653897809e-05  6.6697393935135301e-05 -2.5635345745187896e-05 -2.1203549680087687e-04  8.6469015736431853e-05 2.4523937225843224e-05 -1.2695691428086839e-04  8.4992415196609666e-05 2.3425008671440831e-05 1.3516485423656680e-04  4.4249233812116962e-05 2.5159554649675392e-05 2.4167760222436742e-04  1.5171861012258824e-05 -2.5858254530756219e-05 -2.3342061451548402e-04  6.3289713912130689e-05 -2.0269350272190110e-05 2.1686429395585509e-04  4.4525123660463107e-05 -4.4736266995186004e-05 2.1286564335286053e-04  6.3015748278145479e-05 -3.9086802864453927e-05 1.4925659885858008e-04  4.5661646321573601e-05 -6.3020709188361035e-05 1.1806033929941473e-04  6.0360846406723828e-05 -5.5355801199369938e-05 5.6768633566459634e-05  4.1544378404640637e-05 -7.7356734570843195e-05 5.6780056623663795e-05  5.2776358558535609e-05 -6.0311477551433448e-05 -3.1170313459803844e-05  2.6186439776573884e-05 -7.7326464523210558e-05 -3.2133360577656802e-05  5.0157881805982672e-05 -8.0552268187888723e-05 -7.4270256990585447e-05  1.6731532739044369e-05 -7.9870011326656578e-05 -1.0783181474667009e-04  2.9632783422363403e-05 -6.8364410274425800e-05 -1.4167677881235841e-04  -2.0047132057563003e-07 -6.7178687981110300e-05 -1.6987012655696651e-04  6.5049507655730055e-05 -4.9399030617991492e-05 -9.1017024579717222e-05  5.8353546287424072e-05 1.9785931777860518e-05 -2.2792510825480334e-04  6.4875326576159905e-05 4.2446108851932669e-05 -1.4010557896337078e-04  8.2561306987309703e-05 4.6747483400900029e-05 -7.8989226078748088e-05  1.1695105616136638e-05 -5.1934841049249262e-05 -2.5026162519247504e-04  3.8330735317560971e-05 -4.4157657726127473e-05 -2.3965211284633536e-04  3.9736197346512199e-05 3.8928337912880637e-05 -2.2718468757626956e-04  3.9037603149023137e-05 5.9802009460805343e-05 -1.3920849138706411e-04  7.7668517924672770e-05 -2.2762986995638448e-05 -5.4818972797127875e-05  7.2594929559410229e-05 -4.1511880617024027e-05 -1.1730969515090244e-05  7.9701184821965568e-05 -2.4285308337953574e-05 1.4206806162326855e-04  1.6432779221462902e-05 2.1159499191868901e-05 3.0433121360678810e-04  6.0843114459654509e-05 2.1646760452214836e-05 2.2182306174978495e-04  6.4116225729951055e-05 4.3717939439402926e-05 1.4512964823743207e-04  1.9526058014728647e-05 -8.5234183357820251e-05 1.0910388932759860e-04  -1.5053019779663904e-05 -7.1753066761196427e-05 -1.2094008847441160e-04  1.9163361143181782e-05 -4.8654003621462890e-05 2.2790105498115101e-04  7.5517126042197027e-05 4.3071595990614873e-05 8.1768256249793730e-05  5.3316137338235832e-05 6.1323881706760156e-05 8.5517167548836446e-05  4.0842743728632851e-05 5.7790862422022936e-05 1.6017876556301890e-04  2.6650518873617511e-05 7.3288616440655134e-05 9.5568155440099964e-05  1.5062337855643225e-05 6.6476059993797411e-05 1.8266169008936137e-04  3.9818463097380375e-06 7.9636111134123654e-05 9.3802420900781141e-05  -1.3367837921228850e-05 6.9576236587387579e-05 1.4198832837640510e-04  -2.3873068551591849e-05 7.8493493124556131e-05 5.2487456042480140e-05  -4.4014383636492151e-05 6.5609582894098645e-05 1.1790433478310956e-04  -4.2426121751215523e-06 8.5666971207820617e-05 -1.2689475594871121e-05  -2.8959335480608861e-05 -6.4601143907257815e-05 -1.5722128407618191e-04  -4.7122069552434132e-05 -7.9675094590210012e-05 -6.8390325047505609e-05  -4.7814062898057192e-05 6.7723973646947926e-05 3.1165781495261093e-05  -6.2963544723808473e-05 5.3461330158446584e-05 8.3039119576514098e-05  -7.5476276959725614e-05 6.0270495287603848e-05 -1.6861401894205829e-05  -7.7353935016626979e-05 3.1456757843672397e-05 4.6971906703483637e-05  -8.3774055872812617e-05 3.4745258181729061e-05 -5.2858432190533403e-05  -8.0847141079704892e-05 4.1339963186282555e-05 1.1244774141278124e-04  -6.3699543180269645e-05 5.3446297819955020e-05 -1.0164062262252452e-04  -9.0779107874063285e-05 1.7518477636269102e-05 8.6012583481643985e-05  -8.6319993980169479e-05 3.3219683395058054e-05 -1.0920058617489878e-04  -7.2880447936197242e-05 1.2563980163486977e-05 1.5967107873387709e-04  -8.3187153170081980e-05 -1.2003167935091526e-05 1.1360564456872811e-04  -5.2038590720384208e-05 3.7108322761669501e-05 -2.0054957018395049e-04  -1.0279855111308735e-05 -3.4505503967276611e-05 -2.6824342438177249e-04  -5.6646878848718185e-05 -5.3835766177439861e-05 -1.3633803974685157e-04  -6.1082269130906629e-05 -1.2812881536873145e-05 2.2268544359517356e-04  -7.2013732744155082e-05 -3.6094530248789223e-05 1.5765415918523665e-04  -8.3481037480465437e-05 1.2787360399169383e-05 -7.7163472335794493e-05  -3.2763515167846206e-05 6.2733399404857356e-05 1.5983435394262800e-04  -6.4656039314101791e-05 1.7105986083012007e-05 -1.7955910426235662e-04  1.9460413591463263e-05 5.8985454481659662e-05 -2.0721542962716266e-04  -8.0642037622659184e-05 -2.6836567132187829e-05 4.6259189237613696e-05  -5.1879334546513643e-05 7.7339534782366390e-06 2.5025210492562609e-04  -4.1241757732664415e-05 3.5400992465407308e-05 -2.4237682711016685e-04  -6.0714356014338068e-05 -4.3874021165194170e-05 1.6982422682105326e-04  -5.7136135092887624e-05 -5.8987492799443027e-05 1.5559642740292260e-04  -4.0428696592134547e-05 6.0722578147923889e-05 -1.3959006072579040e-04  -2.2025608239219567e-05 -8.4566544733879088e-05 -2.5251285723241493e-05  -4.2000726863917082e-05 5.1533811290165893e-06 -2.7441510610635387e-04  -6.2873562813241628e-05 -8.7839192927998244e-06 -2.1723189188187989e-04  -3.3579135502623253e-05 -5.6552599610918991e-05 1.9413093430160078e-04  -3.1117783531099886e-05 -7.2176366489479059e-05 1.2072033068609627e-04  -2.9155780679946332e-05 -3.6273230356276693e-05 2.7383348444789740e-04  4.5441811557846744e-05 7.4046440225118703e-05 -1.1017171964327970e-05  -6.2489091451063767e-05 -6.0937470500461917e-05 -6.8104229470249074e-05  -8.0077722441357767e-05 -4.5645845079852004e-05 -9.0179099596550034e-05  1.4852437716380870e-05 7.3262410526120386e-05 -1.5153768296813903e-04  -7.4664971100835652e-06 6.4827912628065087e-05 -1.9559086833407006e-04  -2.6029771294999144e-06 5.7708739540263200e-05 -2.1182017603187491e-04  -2.5759494409594006e-05 2.1739723929263083e-05 -2.7031171760427637e-04  -4.2114266340960554e-05 -4.8259727194276705e-05 -2.1159239635689764e-04  2.1069074885965214e-05 5.6630226942943806e-05 2.2724183941283895e-04  -5.0234345561807427e-05 -6.9290238523937468e-05 8.5756843659946113e-05  -5.7779508901050786e-06 4.5180168822743475e-05 2.2714505088719921e-04  -1.4431077487016662e-05 1.3387419454647840e-05 3.1109349294303212e-04  -9.5872643974928199e-06 7.4441796400267796e-05 -1.0412244737056151e-04  -2.0940083848534371e-05 -1.7882712510506436e-05 -3.0713735052955213e-04  -6.0945687978712880e-06 -6.7607187560042399e-05 1.8141479638756946e-04  -4.3425076507469019e-05 -2.4451545485099311e-05 -2.3198206163175291e-04  -6.3880738300846666e-05 -3.6659245462011091e-05 -2.0123693128313449e-04  -8.6169534423832561e-05 -1.6947527836806882e-05 -1.1294476554118237e-04  -9.9907836790317719e-05 -2.2236501133393722e-05 -4.4509805619235666e-05  -9.0800113750711919e-05 -7.7993536280171551e-07 3.4996798537593093e-05  -3.6015259146961838e-05 3.8144463083527483e-05 2.4825653578772232e-04  -5.3023882970954921e-05 3.5143378503706038e-05 1.9777115096255484e-04  -9.9915119552678719e-06 -7.6436129057924488e-05 1.2340968651848751e-04  -1.4993626104193426e-06 7.1417723201344280e-05 1.6687020194690327e-04  3.5059828734371381e-05 7.0323259760485973e-05 -7.6228086088879111e-05  7.9525455317665510e-05 -2.3124599979642470e-05 -1.0973833941908427e-04  6.8574035244595427e-06 -2.5839114207250971e-05 2.6813524752457546e-04  1.5286680058811126e-05 -7.9252838437245094e-05 5.5039821387551148e-05  -2.6331746637095892e-05 5.7200961999532342e-05 -2.1750328272164164e-04  8.2141138692017816e-05 2.0794472475828611e-05 5.7473967358481550e-05  5.4054573052113650e-05 5.7710997174481179e-05 -8.3120742528884492e-05  6.8004363119088625e-05 5.1870340504664866e-05 -2.5390984913461138e-05  -6.6585202350248252e-05 -4.9612257681005194e-05 7.4445350899220538e-05  -2.5067494277724831e-05 7.0907915612591338e-05 -2.1141944601608158e-05  -4.9768268347243747e-05 7.2374295911576474e-05 -5.1223233079790868e-05  -3.5708063380526402e-06 -5.2223704869773678e-05 2.3940962584095927e-04  -2.3435276400905570e-05 -8.2316600061021542e-06 3.1360878751877117e-04  -5.1327323048876846e-05 -1.4311298683278686e-05 2.1236357627894571e-04  1.9838009759033129e-05 7.6628669173766568e-05 1.9087391661999835e-05  -1.4283371101703787e-06 -8.3372598418550811e-05 -4.0417008905934498e-05  4.8623984205094334e-05 -5.3762716899667009e-05 -1.6637526137888885e-04  8.2369492922997541e-05 1.9644601212704008e-05 -4.0034601976481720e-05  4.2742494933230330e-05 -2.4811523568809652e-05 -2.4279300641814227e-04  -7.3497654858922112e-05 -4.3596704614704352e-05 -5.7937319052865929e-06  -1.9679955194504794e-05 -6.3622590355954519e-05 -1.8804703015602831e-04  4.5033351206474080e-05 4.0377036489821659e-05 2.2349626298269728e-04  -7.5697440297651993e-05 8.2690731417189370e-06 -1.6310965025834775e-04  1.9803197965753355e-05 -6.3642266833255047e-05 1.8432263228302086e-04  2.4424991909095674e-05 4.3946801345427761e-05 -2.5181573997207755e-04  1.3044873781913041e-05 8.2444871010975773e-05 -6.6496552957059259e-05  -5.5533105396123793e-05 4.9988912353349922e-05 1.7417332093703101e-04  6.9654117127050864e-05 -3.5147261372491190e-05 6.5345725582523906e-05  -4.8706139584930651e-06 2.1901861580336693e-05 -2.8229408039547830e-04  6.9234205629676408e-05 -4.1465558485884028e-05 -1.5177534072550721e-04  -8.8009610568199316e-05 1.9532844682672944e-05 1.1796507913628243e-05  -4.7350933696094723e-05 -6.9653861507579365e-05 -4.8616178442319525e-06  -3.2464499012338903e-05 -9.2496323507327524e-05 4.9343964840664834e-05  8.3206440245258356e-05 3.5907632742958079e-05 -1.5313580531030132e-05  -2.1842476983492856e-05 5.0481287896680013e-05 -2.4890812118485972e-04  2.9161879139531933e-05 3.5580804594681077e-05 2.6465821396815436e-04  -2.5117016208082281e-05 1.1147617458311209e-05 2.9618475997076840e-04  -3.0796584531655942e-05 7.2119848838817288e-05 -8.3226700268728779e-05  6.9629522279458959e-05 -3.3265784779683134e-05 -8.8372845814205581e-05  -5.0132212037657937e-06 -8.5965641416882953e-05 1.0480758355785837e-05  -5.4127647809963948e-05 2.0206519145384951e-05 2.6122308751529318e-04  -4.0905076438801614e-05 2.0613475602413295e-05 2.7882358671290681e-04  -2.2610776291126554e-05 6.4028441680613379e-05 -1.5710423828768486e-04  -5.9889609962659119e-05 -5.4490333722200321e-05 8.9231122468142595e-06  1.3002348281081786e-06 5.9264845628264946e-06 -1.0253028776673942e-05  -2.3586463095204207e-05 -2.9020748209705571e-05 -1.9805655908527705e-05  3.2711046966591172e-05 1.2377079500490996e-05 -9.1671992952780298e-06  -1.1360774819479987e-05 2.8130410325172338e-05 -1.0820178014397900e-04  2.6555593124455823e-05 -2.0440557805900009e-05 -8.3162471776336666e-05  -2.0796833139493459e-05 9.2090459250609761e-07 1.8797320354061871e-04  -3.8724823963673038e-05 4.8779063447657310e-06 -1.0700031233974294e-05  6.5700167479566327e-06 2.9472745742108499e-05 1.0656728051803980e-04  2.5135229301825004e-05 -1.4904214610348462e-05 1.0620797030827193e-04  -2.0310249929136676e-05 -7.5927332044086145e-07 -1.7721058184196140e-04  1.7170159496945175e-05 2.1654601828941801e-05 -1.7909897947945464e-04  -6.3340900452046366e-06 -3.1411624274870203e-05 1.2936399985747285e-04  6.5717144285251608e-06 -4.6372510036039359e-05 7.8959860910831557e-06  1.4356470207773442e-05 8.6116260608220768e-06 2.3661360891933479e-04  -5.2802118222490351e-06 -3.6737077761104018e-05 -1.4953018516987738e-04  1.5505677660161507e-05 5.1850280777603963e-07 -2.2816020647848563e-04  -2.7836278539165622e-05 3.3841786332870342e-05 7.0337192740436988e-05  -3.8352455835171206e-05 -1.2642330079617195e-05 8.2999817196001497e-05  4.1409776427541166e-05 3.0705284886163745e-06 -1.5046447841958257e-04  -5.6409025659179249e-06 1.8272033726534885e-05 -2.3667795877789570e-04  6.6800308297240509e-06 3.9334937683717165e-05 -8.8762971413442946e-05  3.2264414346868571e-05 2.2466092603417391e-05 1.4285912650925027e-04  3.5161586459820618e-05 3.4303466471385546e-05 -8.2728401169485980e-07  -3.6978197371254537e-05 1.7276769580481513e-05 -1.6408472743201019e-04  4.0560347593872425e-05 -1.1412169758379368e-05 1.7121954426795268e-05  -1.0964803192485100e-05 2.6854460156783521e-05 2.0891088747911247e-04  -4.3384053954754886e-05 -1.3969848258429264e-05 -9.9594429469585582e-05  4.5223984808060428e-05 8.8849097284752160e-07 1.3331502054905698e-04  2.8901871834913189e-05 -3.1108143494228707e-05 2.9611339555391090e-05  -4.1363151616057129e-05 1.3348895556672789e-05 1.4209726928771931e-04  9.4329035623488471e-06 -1.5484151095117811e-05 2.1692419468927998e-04  -1.4247688626348826e-05 -4.4073119821976353e-05 8.8349355789291682e-05  -1.4090273706296089e-05 -4.4981819247980316e-05 -8.6170636492315434e-05  1.7471417543294203e-05 -4.1000382525739254e-05 -1.2168728925195449e-04  -3.7110869833341770e-05 3.3689878189716960e-05 -2.7811195433502394e-05  1.4369264850772006e-05 -4.0710295052851659e-05 1.5586369874521870e-04  -8.3280970624470645e-06 4.6175954087310165e-05 2.3375158822528109e-05  -2.6164952869436413e-05 -1.8870217179861183e-05 2.2553902845678421e-04  4.2568573332156778e-05 2.1118137992580138e-05 -1.0872996970027577e-04  4.4271525411720411e-06 2.3669772513729753e-05 -8.7686364813712754e-05  1.7072906049167515e-05 1.3501724119422642e-05 1.1388125793329974e-04  </DataArray> 
</PointData> 
</Piece>
</UnstructuredGrid>
</VTKFile>