<?xml version="1.0"?>
<VTKFile type="UnstructuredGrid"  version="0.1"  >
<UnstructuredGrid>
<Piece  NumberOfPoints="201" NumberOfCells="657">
<Points>
<DataArray  type="Float64"  NumberOfComponents="3"  format="ascii">-0.2904064758781372 -0.1334546696117645 899.1941413698128  -0.1464023475989398 -0.0199441355985498 -899.4671147264874  1824.539110808509 0.05229348393700797 -859.0719373088363  3461.901922258894 -0.0336765896927776 -738.4375302906091  4749.181970167182 -0.05228260828369937 -545.0354376239098  5568.38162053746 -0.08433620712786735 -289.4097860290689  5849.410551245769 -0.2413968417600329 0.09101083990874044  5568.461098713112 -0.2928179352669232 289.3497012049788  4749.163175324731 -0.1377961489317217 544.8364707294577  3461.804193229769 -0.07723836556678279 738.5298013854083  1824.566112936227 0.15340815449579 858.7236206482777  2308.073637872958 -1711.549725615554 -790.5725459813639  2294.277693721397 1329.830044732233 808.3876027608201  5569.15296822711 -1512.503167872254 -139.3316169481078  4027.541279798523 -1657.177300872092 615.1488766977734  5073.480990765362 1532.090535547435 392.7973423885032  5052.84799706891 1531.732417091052 -399.4186096770735  2576.64070052548 1531.612844089447 -780.7960566761891  889.3228414663974 -1534.240971163659 858.9867538687706  4002.013936348145 -1527.390847638504 -627.4451232135534  2786.58007137645 -2997.941853532622 -647.3962311862388  4129.689019251381 -2930.566374561107 -451.1526126563862  2830.800301909313 -4188.451956208086 -433.8710065714263  3981.911509584346 -3923.878266926396 -215.1749297170385  2498.23224000963 -4977.814721600163 -182.8080926470367  3555.81729024373 -4465.236619305552 46.35853417327269  1867.619401180438 -5316.985972678623 83.38953682831401  2712.120750708551 -4623.643313783227 315.6275340041399  977.1597984100541 -5182.495624430851 335.1388015099876  1739.970628873583 -4236.834786321901 548.6679811688507  -67.67705859666292 -4551.214060235359 549.6055087178139  4158.417442371865 -3630.950597152182 266.4957606875114  4002.412288210435 1527.15414019346 627.4275023918883  4046.542439253136 2950.197834683429 466.4994400688368  4889.936603403037 2821.204224585228 212.8395141565814  652.5716013669658 -3391.471914459671 725.0298094899415  2389.086899096223 -2971.742419541417 686.0213554190376  2787.222071182591 2827.635582850531 666.6148809108249  2678.334375064603 4125.468240124199 472.4132012436799  5580.008857203127 -1475.737493139512 139.3779963630451  4919.19752989026 -3048.498111752645 16.20976125866224  5084.98416573526 -1533.490346607089 -388.7688773302112  889.3297234647617 1534.311917103706 -858.6681509197025  3962.947649361349 1489.34383074492 -635.7700699598319  4015.632693542084 2934.567717160279 -475.6020244180908  1213.829461243889 -5029.629922392277 -376.9776551987298  -849.4991387227527 -5243.855324607835 317.5254082967699  1190.993563907059 -3080.270030431738 -743.5500207339721  4856.824988108829 2855.376645504924 -219.9716949810736  3632.781306783427 4125.460422856005 -264.5873022625644  2585.459567622622 4024.131083635441 -507.4161118647445  2036.907837936764 5001.619757232532 -284.8345426541427  901.7342800997779 4705.555156822335 -494.068786425539  263.1413290731736 5414.128188387881 -258.6175164435041  -923.9879809704632 4839.834160948813 -456.6272049065731  -1521.537744399837 5315.40393326954 -195.3979618466243  -2684.246659524577 4544.232853276484 -351.8898999322954  -292.8124774985295 5626.96364204156 17.42102606071371  -1874.384765199349 -4372.869294436236 507.7832024760765  -2582.77427080227 -4824.822553790022 253.8664160649897  -3147.449471128917 4716.169651316112 -95.6924452018775  -4159.376882352341 3691.456950132265 -242.1047562845939  -4427.311462996306 3680.495872429862 21.702055833329  -5195.29170346644 2428.617985775904 -151.5841372660138  -5266.076440368553 2305.179085448538 141.1778487508872  -4623.591812383888 2306.29276716681 -428.2923615150308  -4262.180793159188 3409.359481855065 303.4885310489444  -5498.627792893421 1007.944221314556 -274.656685057932  -4873.073654553421 1898.309618634434 412.5558786591712  -4693.308448449847 648.9741605304172 -546.5617399150946  -5260.41368798406 -732.54906855071 -392.8869271604273  -3631.939513182366 2866.435613284416 555.8716229735752  -814.9382608889704 -2353.80011600647 815.1426196263956  -3531.991178677104 -3736.058613158878 416.0013599268481  -4222.173588716189 -994.7831031872325 -620.5692619691924  -4550.811318187489 -2329.819928930851 -444.2051412017091  -5623.518297667869 639.8481976057425 237.1847136621109  -1964.634104796315 3774.699534372542 -614.2785713167306  -4021.946909722467 1225.673687064997 641.5344873039841  1264.826067375083 3816.364465871836 650.2583560370257  -5416.148190037445 -1904.740632426681 -159.4099603036684  -3427.941446764324 398.25788362114 -739.8410615499954  -2670.498301183517 2187.787451463815 733.9133439623351  -3288.451441716005 -2513.06546061836 -644.6127861575688  -3434.181680481623 -3731.531771229553 -437.1569147085016  -2893.601584340353 4201.791486140038 419.7097918582906  -1474.639611320366 -5441.483532920782 60.54845711902669  -2816.056539707863 368.6923244667778 795.7471035252962  -4149.071075001664 -531.0279849438945 646.3196372541728  -1986.846501882031 -3750.795777790119 -616.0458299059123  -1987.856631399378 -4768.629474509584 -386.4896320688508  -1717.391553817104 -2382.342986618884 -782.0727916122086  2966.55780040245 4853.774200611612 -26.51663358599735  -3990.491066214697 -4000.608270217103 166.3210725292485  -4807.227696808756 -2703.342112629501 290.6166354409059  1049.925065487744 4899.714161025441 432.047316274068  -380.0402084847184 4426.490996860748 572.2431226866646  -131.9560217299849 3344.196018069624 737.5258079925677  -1598.863883393976 1416.221059334979 841.3770543030375  -2656.448941047302 -3064.766809005339 652.411937696501  1386.730971800296 3731.7568911008 -656.6785873443011  -3280.667791412638 -4504.44090117634 -204.7507180255404  -436.3337437011405 2869.222666531439 -781.7244180479582  -969.123530166864 1232.415766550888 -868.418896504547  -651.9350488241827 5269.730508833436 317.3288835935883  -1247.769380037999 -872.9408727707372 870.3753053467473  -424.2198433783867 -4632.942321110479 -527.0819597001857  -2690.346614807833 -1399.085219526207 778.2752033406772  -4131.67731686063 -2244.184523129987 545.7288425492769  -5134.559835948437 -1076.794414896031 413.2987758351464  -5607.597789840863 -1395.52330598767 131.9509098086576  -5823.99160300922 -181.305984918299 -81.78752067004365  -2262.530190464324 2436.071840923044 -746.0690057488147  -3423.115380043178 2688.140518013009 -608.7087359445178  -498.6077038853152 -5309.669386382679 -306.0748458462786  -199.975743764221 4182.011682004759 -620.4813224410135  2334.402158468241 4956.632259518918 244.5977028568042  5051.60873802618 -1465.659927249403 406.3070403049704  294.616834716909 -1610.23064549044 -864.0973120295688  924.8661273664709 -5497.651622811138 -144.6128843283279  -1790.491285881858 3617.665325738833 649.8195319099093  5592.91996020692 1417.892958086 -142.3116643114565  3739.956730156304 4087.454415036051 241.3038506220384  4409.062737439957 3702.077793681009 -10.73279287019934  -4469.141987637757 -3350.977431314686 -236.9177262299895  -1938.517360222226 5299.156855448002 73.09805805838526  -3252.835812580422 4570.91502428104 171.658457869605  -319.3592194378715 -3466.92878907334 -721.5711546681051  -1376.247172804935 -634.4830763527326 -871.4470406562328  -2895.319830778682 -1016.12736807364 -775.8517504919537  1351.37074781923 5475.419847387196 -48.11272649202226  157.9159909506742 -5599.009550407684 104.3800837422281  3239.829458597455 -3570.595882209108 505.068968414454  5602.499599034057 1436.092786246284 126.2977807988374  2577.867855848825 -1520.502982591206 781.4584920832758  -4947.975155266238 -3003.096772932545 23.19476578898459  -1053.08542501765 -3737.785286491313 670.0906364892244  2865.72650037222 2741.45099383581 -667.6343558243937  -5024.543588067544 450.5835239520569 474.0421448379893  1318.443508981444 -4212.825746986441 -580.9525590015155  1443.497196353955 2725.30449780589 767.0923564203219  833.5103591914368 5452.760749788596 196.9937732166677  -3646.79840762915 3540.24081390808 -437.1680011195773  4895.924010739465 -2717.512957303878 -244.8940290882141  -90.48295970333899 1479.041716144526 870.1447409058792  4440.542777263291 -2648.992771435496 423.1582410907614  -5679.108605155274 1343.278534756031 -21.44568915210896  -3023.831348700982 -4824.213623061613 8.870525439132887  -1847.249004793359 -5266.332957365244 -155.6732084071262  5248.227284609959 2488.841075315836 -6.639466396971377  -1315.316801076587 2795.786961975876 766.277622813374  1637.150365295777 2538.924277474998 -774.1415529826024  -1990.040765499738 417.8423634390402 -848.5168564928548  -2141.331579072352 4935.199485083459 297.2860337767193  4979.501765671105 -2527.848801735963 257.7031349772052  -399.2194128111378 -5594.540655508989 -94.26986986837991  -3771.872697921449 1472.692462907776 -663.294060554117  -2583.787660458069 1254.307158127906 -792.2507943875702  -1640.657838259778 4545.477655673888 486.942537553417  -4113.77816078798 -3994.554128209641 -52.49246379997162  0.007345722423136833 0.05883632248871479 -0.02864028162934219  -1881.136424742389 -2223.116381125341 25.03440593313329  2844.283537969004 866.9637981295264 -4.164651231541853  -1133.813759520256 2337.556404134631 199.7905995800979  2120.997600214173 -1657.079302887464 181.7580824353324  -1384.335199101832 242.9278143059771 -401.1615787630935  -2925.516335992347 441.1047064263987 0.2765408584026123  559.3025535396064 2643.745408119668 -173.6504378445475  1977.801364546403 -1303.451435728558 -271.1297043596118  -1539.768294815052 -247.8337374106351 389.4782454664828  1475.01630470017 1967.577088176639 315.5319355874517  -544.6128208334839 -2245.964675537809 -342.4781104070138  486.3064799656427 -3238.846081397388 1.656675457381088  1175.576434053869 862.1839946354157 -446.83
[...]
<PointData  Vectors="Centrifugal"> 
<DataArray  type="Float64"  Name="Centrifugal"  NumberOfComponents="3" format="ascii">-3.7023215267758937e-09 -1.7967940437201358e-09 0.0000000000000000e+00  -1.8979566672198180e-09 -2.7682260975395345e-10 0.0000000000000000e+00  4.3583079624496835e-05 8.7950061892324854e-10 0.0000000000000000e+00  8.2793517680501173e-05 -2.3178629016157825e-10 0.0000000000000000e+00  1.1375549156961311e-04 -4.1344212672808212e-10 0.0000000000000000e+00  1.3353764250150524e-04 -8.5565474537065568e-10 0.0000000000000000e+00  1.4033755712698751e-04 -3.0408530890603011e-09 0.0000000000000000e+00  1.3353876536425474e-04 -3.6989980513499868e-09 0.0000000000000000e+00  1.1375519502272509e-04 -1.5709921914906694e-09 0.0000000000000000e+00  8.2792217626211597e-05 -7.8058022340957164e-10 0.0000000000000000e+00  4.3583408681281768e-05 2.1381602098409769e-09 0.0000000000000000e+00  5.5173381678439473e-05 -4.0963696976771897e-05 0.0000000000000000e+00  5.4829218741374080e-05 3.1823775907483226e-05 0.0000000000000000e+00  1.3359848407877887e-04 -3.6321007733113256e-05 0.0000000000000000e+00  9.6420950158171938e-05 -3.9722332045101752e-05 0.0000000000000000e+00  1.2161996617038200e-04 3.6767215364031291e-05 0.0000000000000000e+00  1.2112038740181822e-04 3.6761835545595992e-05 0.0000000000000000e+00  6.1599791575714974e-05 3.6661307201012404e-05 0.0000000000000000e+00  2.1244149852319147e-05 -3.6694015793915876e-05 0.0000000000000000e+00  9.5803069325547070e-05 -3.6606873334548920e-05 0.0000000000000000e+00  6.6697911473552032e-05 -7.1839508270602623e-05 0.0000000000000000e+00  9.8963907697601890e-05 -7.0311153353771208e-05 0.0000000000000000e+00  6.7847163196844387e-05 -1.0049906312976484e-04 0.0000000000000000e+00  9.5509054474789151e-05 -9.4225001496402218e-05 0.0000000000000000e+00  5.9925928387736438e-05 -1.1953426579711812e-04 0.0000000000000000e+00  8.5308866815860372e-05 -1.0724689392456107e-04 0.0000000000000000e+00  4.4808523250092420e-05 -1.2769286983840456e-04 0.0000000000000000e+00  6.5035058017783804e-05 -1.1099382566703229e-04 0.0000000000000000e+00  2.3430344802873405e-05 -1.2439528653845230e-04 0.0000000000000000e+00  4.1675963419683498e-05 -1.0159327090477427e-04 0.0000000000000000e+00  -1.6199053927030958e-06 -1.0913006875259445e-04 0.0000000000000000e+00  9.9725344765308938e-05 -8.7177187790400047e-05 0.0000000000000000e+00  9.5808366837954790e-05 3.6604267708226379e-05 0.0000000000000000e+00  9.6963163899350526e-05 7.0779211003894459e-05 0.0000000000000000e+00  1.1728721955484332e-04 6.7746678052918322e-05 0.0000000000000000e+00  1.5611343201643595e-05 -8.1212732440114142e-05 0.0000000000000000e+00  5.7160273351005508e-05 -7.1187346385254973e-05 0.0000000000000000e+00  6.6702289069817819e-05 6.7751277924911528e-05 0.0000000000000000e+00  6.4178968578603343e-05 9.8969382577870189e-05 0.0000000000000000e+00  1.3385709099123617e-04 -3.5437253020410294e-05 0.0000000000000000e+00  1.1801243461697650e-04 -7.3216631022614612e-05 0.0000000000000000e+00  1.2189341441761004e-04 -3.6799905418208051e-05 0.0000000000000000e+00  2.1244266401763258e-05 3.6695108239754569e-05 0.0000000000000000e+00  9.4859409937918213e-05 3.5692690081322424e-05 0.0000000000000000e+00  9.6221355904288055e-05 7.0401390396156028e-05 0.0000000000000000e+00  2.9100825816944913e-05 -1.2070694335484878e-04 0.0000000000000000e+00  -2.0362807838957379e-05 -1.2587055153218826e-04 0.0000000000000000e+00  2.8482208248425397e-05 -7.3752483553772403e-05 0.0000000000000000e+00  1.1649000314017813e-04 6.8561896870986301e-05 0.0000000000000000e+00  8.7122545772144340e-05 9.9053708080005303e-05 0.0000000000000000e+00  6.1939507836642453e-05 9.6522630073680061e-05 0.0000000000000000e+00  4.8845633785674466e-05 1.2007662728982392e-04 0.0000000000000000e+00  2.1603528006857244e-05 1.1287119744099937e-04 0.0000000000000000e+00  6.3132633902713544e-06 1.2998767518111853e-04 0.0000000000000000e+00  -2.2141032120770633e-05 1.1611025189758307e-04 0.0000000000000000e+00  -3.6493864742629768e-05 1.2763679710001288e-04 0.0000000000000000e+00  -6.4351774779771557e-05 1.0906857339525213e-04 0.0000000000000000e+00  -7.0214660933262993e-06 1.3514323439780136e-04 0.0000000000000000e+00  -4.4902019176825605e-05 -1.0487865711717358e-04 0.0000000000000000e+00  -6.1941003877895477e-05 -1.1583699893547928e-04 0.0000000000000000e+00  -7.5502546157423252e-05 1.1326174398995398e-04 0.0000000000000000e+00  -9.9757759685403845e-05 8.8627085579712063e-05 0.0000000000000000e+00  -1.0621890778540688e-04 8.8393073310275336e-05 0.0000000000000000e+00  -1.2462408503763377e-04 5.8323443692690136e-05 0.0000000000000000e+00  -1.2632647921586980e-04 5.5359572978942040e-05 0.0000000000000000e+00  -1.1082014389361196e-04 5.5338452243420946e-05 0.0000000000000000e+00  -1.0220601909461330e-04 8.1842911055724751e-05 0.0000000000000000e+00  -1.3187419455706559e-04 2.4193051109173497e-05 0.0000000000000000e+00  -1.1680833684792208e-04 4.5552668083891994e-05 0.0000000000000000e+00  -1.1241968556042753e-04 1.5556243848246670e-05 0.0000000000000000e+00  -1.2611197126251021e-04 -1.7578291961176596e-05 0.0000000000000000e+00  -8.6984220395507392e-05 6.8731410470355557e-05 0.0000000000000000e+00  -1.9473465512077370e-05 -5.6320037422814457e-05 0.0000000000000000e+00  -8.4654351979016740e-05 -8.9645102867136494e-05 0.0000000000000000e+00  -1.0108172005989270e-04 -2.3843978911972280e-05 0.0000000000000000e+00  -1.0906812056023671e-04 -5.5897811096069280e-05 0.0000000000000000e+00  -1.3488406857324630e-04 1.5355908723667367e-05 0.0000000000000000e+00  -4.7033906060528317e-05 9.0475420631756535e-05 0.0000000000000000e+00  -9.6271209406979835e-05 2.9370610766969957e-05 0.0000000000000000e+00  3.0270063666539207e-05 9.1450523415231513e-05 0.0000000000000000e+00  -1.2993380470688074e-04 -4.5740249728961190e-05 0.0000000000000000e+00  -8.1986119664893795e-05 9.5351621257058651e-06 0.0000000000000000e+00  -6.3872337868982725e-05 5.2384380863059019e-05 0.0000000000000000e+00  -7.8712882573230429e-05 -6.0220791946371209e-05 0.0000000000000000e+00  -8.2302712654395063e-05 -8.9531301837838964e-05 0.0000000000000000e+00  -6.9354248675839510e-05 1.0081692786044435e-04 0.0000000000000000e+00  -3.5374877480669333e-05 -1.3068262947079333e-04 0.0000000000000000e+00  -6.7312289427187236e-05 8.8239829636329579e-06 0.0000000000000000e+00  -9.9310950572826449e-05 -1.2728010669080102e-05 0.0000000000000000e+00  -4.7564666244680750e-05 -8.9899824896259156e-05 0.0000000000000000e+00  -4.7650747642529056e-05 -1.1443786783006671e-04 0.0000000000000000e+00  -4.1053760405702863e-05 -5.7019960841558292e-05 0.0000000000000000e+00  7.1165474778838749e-05 1.1657946548864757e-04 0.0000000000000000e+00  -9.5717966611346688e-05 -9.6065209425549381e-05 0.0000000000000000e+00  -1.1528262022799556e-04 -6.4897855585002300e-05 0.0000000000000000e+00  2.5163594102752257e-05 1.1756241974373131e-04 0.0000000000000000e+00  -9.0969995744833016e-06 1.0612617477431670e-04 0.0000000000000000e+00  -3.1552923686282422e-06 8.0079932972581695e-05 0.0000000000000000e+00  -3.8199123810107455e-05 3.3875287344040018e-05 0.0000000000000000e+00  -6.3579709452889118e-05 -7.3434552354185870e-05 0.0000000000000000e+00  3.3187662610158947e-05 8.9415232062729178e-05 0.0000000000000000e+00  -7.8687353260506771e-05 -1.0815330415068063e-04 0.0000000000000000e+00  -1.0432930518021264e-05 6.8675942434279720e-05 0.0000000000000000e+00  -2.3146559826960344e-05 2.9473086174386580e-05 0.0000000000000000e+00  -1.5629598926188008e-05 1.2649585456416543e-04 0.0000000000000000e+00  -2.9801982266068957e-05 -2.0869385915824053e-05 0.0000000000000000e+00  -1.0160801373455565e-05 -1.1110163796651887e-04 0.0000000000000000e+00  -6.4322676586359595e-05 -3.3490294812125300e-05 0.0000000000000000e+00  -9.8961879191051698e-05 -5.3810723013238846e-05 0.0000000000000000e+00  -1.2308295663182603e-04 -2.5839622801951485e-05 0.0000000000000000e+00  -1.3453506302110052e-04 -3.3513236182270778e-05 0.0000000000000000e+00  -1.3973111912444220e-04 -4.3567100490534339e-06 0.0000000000000000e+00  -5.4104934393758394e-05 5.8327404800152707e-05 0.0000000000000000e+00  -8.1953659324867183e-05 6.4434229353039422e-05 0.0000000000000000e+00  -1.1949730043371574e-05 -1.2745553498617670e-04 0.0000000000000000e+00  -4.7869002616905181e-06 1.0023532265247264e-04 0.0000000000000000e+00  5.5986469159054768e-05 1.1901303855708336e-04 0.0000000000000000e+00  1.2108600738092124e-04 -3.5172745618911463e-05 0.0000000000000000e+00  7.0420986332892282e-06 -3.8510168705518267e-05 0.0000000000000000e+00  2.2187164245948439e-05 -1.3202047867225101e-04 0.0000000000000000e+00  -4.2854601786270243e-05 8.6684163425650696e-05 0.0000000000000000e+00  1.3416888970496085e-04 3.4051544395803227e-05 0.0000000000000000e+00  8.9698783967278825e-05 9.8146866794812689e-05 0.0000000000000000e+00  1.0577811523503557e-04 8.8919852870280889e-05 0.0000000000000000e+00  -1.0718842521805546e-04 -8.0456291245059038e-05 0.0000000000000000e+00  -4.6503612005149770e-05 1.2726371257311617e-04 0.0000000000000000e+00  -7.8026728274438627e-05 1.0976317913744881e-04 0.0000000000000000e+00  -7.6383623831926611e-06 -8.3023018837647081e-05 0.0000000000000000e+00  -3.2870204214006262e-05 -1.5174721880762990e-05 0.0000000000000000e+00  -6.9221165660874118e-05 -2.4327008120491044e-05 0.0000000000000000e+00  3.2421780333769200e-05 1.3149931560223877e-04 0.0000000000000000e+00  3.7937726742494569e-06 -1.3446095844846706e-04 0.0000000000000000e+00  7.7622007794302851e-05 -8.5641582884987810e-05 0.0000000000000000e+00  1.3440208021366106e-04 3.4488059653313152e-05 0.0000000000000000e+00  6.1631797231731728e-05 -3.6395927452102591e-05 0.0000000000000000e+00  -1.1870553368768443e-04 -7.2124477285386563e-05 0.0000000000000000e+00  -2.5198106035004099e-05 -8.9549590819790843e-05 0.0000000000000000e+00  6.8579744649985007e-05 6.5684960726369515e-05 0.0000000000000000e+00  -1.2040735803664702e-04 1.0805358700256246e-05 0.0000000000000000e+00  3.1573863749047862e-05 -1.0099515715183154e-04 0.0000000000000000e+00  3.4512596144294585e-05 6.5238696560517858e-05 0.0000000000000000e+00  1.9995308803808646e-05 1.3093435349394769e-04 0.0000000000000000e+00  -8.7397377765948220e-05 8.4939788847149543e-05 0.0000000000000000e+00  1.1741825886346966e-04 -6.5249447734002636e-05 0.0000000000000000e+00  -2.1600654805147335e-06 3.5371457828961019e-05 0.0000000000000000e+00  1.0643039443056016e-04 -6.3559280828636420e-05 0.0000000000000000e+00  -1.3625438917837937e-04 3.2256408628598295e-05 0.0000000000000000e+00  -7.2543938313147897e-05 -1.1585571819050259e-04 0.0000000000000000e+00  -4.4310011599724485e-05 -1.2646403974234018e-04 0.0000000000000000e+00  1.2590779666460863e-04 5.9777875764927571e-05 0.0000000000000000e+00  -3.1448574289213523e-05 6.6928120355669733e-05 0.0000000000000000e+00  3.9138764296045171e-05 6.0779004614719172e-05 0.0000000000000000e+00  -4.7542537847393406e-05 9.9917134236838000e-06 0.0000000000000000e+00  -5.1345206238437343e-05 1.1847305807115580e-04 0.0000000000000000e+00  1.1942048963827367e-04 -6.0691495781244345e-05 0.0000000000000000e+00  -9.5694937696688369e-06 -1.3435169130131494e-04 0.0000000000000000e+00  -9.0267281352648110e-05 3.5283074645376374e-05 0.0000000000000000e+00  -6.1766412643569601e-05 3.0019983338993062e-05 0.0000000000000000e+00  -3.9308115951279804e-05 1.0903468157180624e-04 0.0000000000000000e+00  -9.8689933352181299e-05 -9.5933242962991676e-05 0.0000000000000000e+00  9.2799145271908080e-11 7.7901960518976026e-10 0.0000000000000000e+00  -4.4954882907045851e-05 -5.3190248956509268e-05 0.0000000000000000e+00  6.7974065270698104e-05 2.0743087716713516e-05 0.0000000000000000e+00  -2.7088423906967463e-05 5.5918499222884849e-05 0.0000000000000000e+00  5.0678240330760215e-05 -3.9640219101687402e-05 0.0000000000000000e+00  -3.3047779005637297e-05 5.8068359331405234e-06 0.0000000000000000e+00  -6.9914051612349724e-05 1.0554950475958143e-05 0.0000000000000000e+00  1.3361886454919797e-05 6.3247178694585875e-05 0.0000000000000000e+00  4.7243987491883919e-05 -3.1175395213308110e-05 0.0000000000000000e+00  -3.6765156180756985e-05 -5.9256041278409596e-06 0.0000000000000000e+00  3.5236505304736285e-05 4.7065799140330804e-05 0.0000000000000000e+00  -1.3010594312678618e-05 -5.3718530703235307e-05 0.0000000000000000e+00  1.1627654088597118e-05 -7.7521959095975360e-05 0.0000000000000000e+00  2.8069679955378632e-05 2.0612863658752925e-05 0.0000000000000000e+00  -1.1077514172103619e-05 -6.0407146939260001e-05 0.0000000000000000e+00  2.4613169006195567e-05 -7.3746241315626010e-06 0.0000000000000000e+00  -4.7560831156303449e-05 5.9068695666253991e-05 0.0000000000000000e+00  -7.0012126326564396e-05 -2.8209732072787933e-05 0.0000000000000000e+00  7.1300848503514803e-05 3.5419962066334465e-06 0.0000000000000000e+00  -9.5266978696060330e-06 3.6667002399695974e-05 0.0000000000000000e+00  1.4626333883817367e-05 8.2933863248256420e-05 0.0000000000000000e+00  6.0423282226054566e-05 4.9075858315873257e-05 0.0000000000000000e+00  6.0374731645921286e-05 6.8871321231522202e-05 0.0000000000000000e+00  -6.9405589472711519e-05 3.1191738216971303e-05 0.0000000000000000e+00  8.5258487328367387e-05 -2.5856684191682362e-05 0.0000000000000000e+00  -1.7040109528096106e-05 5.4581341731763741e-05 0.0000000000000000e+00  -8.2008633832104306e-05 -2.8651844656027102e-05 0.0000000000000000e+00  8.0192210462440424e-05 4.9069516102349392e-06 0.0000000000000000e+00  5.9368203275813003e-05 -6.7771206667707808e-05 0.0000000000000000e+00  -7.6328002679011369e-05 2.5031546888851555e-05 0.0000000000000000e+00  1.7666920828317280e-05 -2.6676669899223238e-05 0.0000000000000000e+00  -2.7489704947611848e-05 -8.5156017095829617e-05 0.0000000000000000e+00  -2.6636775379478337e-05 -8.9638195699654098e-05 0.0000000000000000e+00  3.1694900783488333e-05 -7.9066860927936260e-05 0.0000000000000000e+00  -6.9235732065396106e-05 6.7466413964650855e-05 0.0000000000000000e+00  2.6736435671998487e-05 -7.7031576769374558e-05 0.0000000000000000e+00  -1.9115329433646207e-05 9.0837142507172944e-05 0.0000000000000000e+00  -4.6372778674448816e-05 -3.4342591140080195e-05 0.0000000000000000e+00  7.9897192882306858e-05 4.4104020042749432e-05 0.0000000000000000e+00  1.0082400030793758e-05 4.0813614313380327e-05 0.0000000000000000e+00  2.9985713807196400e-05 2.1980043410572611e-05 0.0000000000000000e+00  </DataArray> 
</PointData> 
</Piece>
</UnstructuredGrid>
</VTKFile>