<?xml version="1.0"?>
<VTKFile type="UnstructuredGrid"  version="0.1"  >
<UnstructuredGrid>
<Piece  NumberOfPoints="201" NumberOfCells="657">
<Points>
<DataArray  type="Float64"  NumberOfComponents="3"  format="ascii">-0.06801229471385659 0.3748379063386293 5367.432998537076  -0.4273593474910514 0.5967953253088908 -5367.672497375959  305.7920121430607 0.7308871721882326 -5100.765278338152  579.2295604063696 0.88255791356596 -4329.092665197961  792.4489237567676 0.09356428563064495 -3136.642101317329  926.5434948627521 -0.08387009092517199 -1645.157352394633  972.6188012104485 -0.1677083371844035 -0.1293047058077892  926.6911717365301 -0.1292150610900632 1645.177533564163  792.5901474234912 0.4275370121634006 3136.261487810533  579.6723040113546 0.5033363700746885 4329.203989358318  306.2725533780805 0.5308110265079879 5100.737633931492  387.8435908558029 -770.84745727633 -4658.952001990384  385.2559041334299 598.9952146884253 4775.000441892048  928.6837757034846 -709.8634888979575 -788.8664329416861  674.8976799371957 -758.6853752747326 3562.727786969688  847.6222831886636 712.6416706343142 2240.814134948103  843.9886654767807 712.2254065327684 -2280.26335260306  432.6879042618025 691.6161819052802 -4596.549980331763  149.5933191127332 -685.7032753956764 5102.374172110042  670.116363280583 -699.2898850063593 -3638.627901631091  470.2978893049062 -1367.807721923589 -3765.397803881548  695.0470756787205 -1356.141719041363 -2586.994729339169  481.2731162962696 -1935.403831414332 -2488.1868508995  674.4892380089018 -1830.811314652139 -1223.157702314493  427.4987290159529 -2318.351514908452 -1040.488024186528  605.1857118633436 -2086.380520997839 262.7970203967724  320.8769250842248 -2477.775764086109 474.9101330006275  463.0349402143372 -2146.252543806587 1801.528718522645  167.8611161172709 -2399.833060016726 1917.784212652942  296.4611213701066 -1942.473670197845 3170.308748414146  -11.4494973947197 -2085.117865935016 3177.689239387905  702.8228931643267 -1692.291466168573 1517.706759763397  670.3763420055366 699.6134038627116 3638.693643913116  681.5315797489159 1364.016841635427 2676.151944542779  821.3210496780245 1319.009960154633 1208.8060549516  110.7444518422238 -1535.100506999799 4254.36263833745  403.3662493906069 -1350.959292261909 4007.269051957534  470.2107262940424 1288.801660430039 3882.378894165409  455.3193808456942 1902.532813824835 2716.728864783015  930.4102789192071 -692.2186323183678 788.7540718278788  826.7616180479361 -1428.826042105904 91.27319918589174  849.1375342953301 -713.2395885342902 -2219.037631069201  149.2421888892388 686.6973579304723 -5102.711299317832  663.7548618058017 681.4617721172011 -3688.838171021218  676.3222600699208 1355.907250779032 -2730.302059573948  208.0178061156797 -2325.833264130585 -2160.240312883152  -145.7425824467395 -2429.326055652814 1815.536859756611  201.2531466967621 -1392.163151812006 -4368.188036561244  815.7029858848585 1334.471754185412 -1249.420842970571  616.7566386212064 1920.620516415565 -1506.462044795265  439.0516411098478 1851.712191706673 -2923.761723662983  348.8520527013404 2321.797923281721 -1626.452144074964  153.9501822019786 2163.699590907905 -2847.359608263898  45.41408665643294 2512.204729844017 -1476.822514976701  -158.170074567438 2229.688153231059 -2628.007956676253  -261.5148302015482 2471.545211157811 -1113.242508607466  -457.6830775763946 2106.00578406034 -2011.560340244367  -50.36794574435791 2620.449573978005 98.43071809727549  -319.3376243180722 -2009.921185012054 2928.049089888647  -441.5572005230044 -2243.087766142807 1447.625435567272  -537.0490999340253 2200.545781445369 -543.1353619449993  -703.3459281700871 1721.315144434224 -1376.682352580054  -748.0423096619501 1722.319674719222 123.1321902051067  -870.0135343185991 1137.417413102703 -859.2826578400131  -881.0651445253515 1080.166060721686 801.5065432408242  -775.537967406905 1069.735141915441 -2450.608541001562  -719.19944744807 1587.53941448248 1728.079597596427  -916.0006491714886 471.0723146022958 -1560.045111956033  -815.4041926617123 881.7700034664057 2358.199678711424  -783.8376971442832 299.4231590062009 -3146.178980556716  -877.0060526425548 -340.9941951608519 -2242.090583812239  -611.8555170496417 1317.373381988386 3208.603913399691  -137.2832719518492 -1056.64751875925 4824.186775305404  -597.8332273433213 -1729.356836333069 2384.144816152973  -706.2155092743197 -455.876734325936 -3595.228973093738  -763.4413382220038 -1079.414280333541 -2543.799379488362  -935.9734477550579 299.6410207042038 1345.729557768615  -333.4862866894251 1724.644324162106 -3564.931877329583  -673.3281174570825 560.9576715534341 3722.441787743246  214.6824179127487 1738.679583174404 3785.848596637482  -904.7534806582155 -893.2432211253096 -902.4287403210125  -574.313646905057 180.9929271140313 -4335.281010231373  -449.1066175876326 992.183954325151 4302.547991641014  -553.8164347307568 -1147.180129667416 -3744.87078256497  -581.5921973071372 -1725.729223400855 -2508.061326164482  -491.8857376726967 1942.839290558343 2406.704512739791  -253.6436791296495 -2535.319718654223 343.9729563531203  -472.04722525634 166.6577230961362 4693.422063873614  -693.4556105706852 -242.1138106523935 3752.348883542064  -337.2448549500902 -1712.943610399715 -3577.49785138477  -339.9648395440624 -2205.542615040405 -2213.677855447681  -289.6452423297135 -1073.04402685198 -4608.111648870212  506.9739640012653 2265.453440521696 -150.6754413373661  -676.1589033840187 -1868.0838818318 945.6807870854502  -807.1626926960397 -1261.009745894342 1653.279082565238  179.7269313069264 2260.208564101881 2482.047104896169  -64.75480541991365 2026.587439681707 3316.119338872759  -22.26402271736606 1513.120012596696 4327.806865641031  -268.5639282394677 636.0176406987229 4986.510833119394  -448.3240284517833 -1397.274454565304 3796.182699953143  235.1604206897916 1699.292498583532 -3826.302400775254  -558.5815301410365 -2099.43388875876 -1165.460948758511  -73.98891830945891 1292.619418745381 -4610.034085837256  -163.2473110251751 551.2136943857404 -5163.518696320655  -111.9599767102243 2441.497385063845 1815.203246138799  -209.5325176837171 -390.2163154500584 5178.769762730336  -72.58541627997057 -2125.839169076033 -3044.513796279866  -451.5348631147746 -630.60069747351 4579.253603692854  -693.3237499370988 -1032.427242955481 3147.213406935634  -856.6085031787898 -500.3051640833465 2359.1705886681  -934.5946614891516 -655.0163846061502 746.7676816725293  -968.3362465740125 -85.4356867751484 -462.1224899800587  -381.4015615482214 1102.61331244457 -4378.646313076943  -576.4790571721597 1230.63659529678 -3526.706707461236  -85.68678357641019 -2460.808265771076 -1749.925657638908  -34.07693664209965 1908.240881525238 -3605.274425390692  399.6817015605952 2304.336476340141 1395.110144030968  844.0018693414886 -681.4464537503204 2321.68888753087  49.38779876351342 -718.8900003394094 -5139.523410918578  159.1600063699116 -2558.657292196978 -823.3398670879182  -303.5230502173926 1648.851267212458 3783.575377385221  932.4216987401398 664.7972929742746 -805.7567659498363  634.6527770382553 1904.557940385728 1372.595717392295  745.0804439767493 1732.682561790295 -60.86303347024221  -753.5775232618613 -1564.376345832062 -1348.150411215752  -332.9495851882342 2469.113048645122 415.7650485929652  -554.556649557342 2131.108618599566 976.3878209947604  -54.22656415603011 -1569.332632634228 -4231.601920961042  -231.3857901092998 -283.1892718146059 -5182.791771805895  -485.8756038392798 -458.4178977152514 -4565.334863046539  232.6352019447236 2550.70388233726 -273.1364606288311  27.40146434621102 -2606.392507007254 594.0147154632288  548.3441160139377 -1644.469349559923 2907.692040734412  934.0416992170193 673.6904364005555 715.0390919657768  433.228193452653 -685.3737235285718 4598.849356396841  -831.2726508567872 -1408.17641163932 131.4699211466209  -178.5740736406288 -1699.169265575314 3910.208469292504  483.0097808694529 1248.990611688987 -3890.12120338812  -837.8645093913223 209.01082894419 2716.291201570456  224.3986969307217 -1927.309635286187 -3365.848058936026  243.781187406752 1230.543229079539 4514.617473215046  143.5734143372094 2534.521575049911 1123.515346727774  -616.8043224245761 1637.344633992988 -2506.853551723786  821.6574006774329 -1269.727371342817 -1392.800778057911  -15.11861467467921 662.3457977907894 5180.699401038393  746.2191683783918 -1228.006804985184 2422.644321214153  -946.472820766399 630.5660070015603 -121.0230538054086  -516.6281631970891 -2251.911019242311 51.48754085365422  -317.3080870887837 -2452.07545182126 -885.6892247811583  879.1839951569599 1167.246094357531 -37.07247791019339  -222.0787200104353 1262.417397283296 4508.747726867597  275.9732232419065 1145.681535538362 -4556.797382420167  -334.2770278861994 188.0903916629628 -5033.133432640525  -366.3695470357255 2290.300729193347 1697.869759844443  834.9533383179795 -1180.855646577226 1465.133367530712  -68.66680939446316 -2604.650566971315 -536.826785002821  -632.4910268248193 672.045971935521 -3859.952566919935  -434.0495546623687 565.6570471144745 -4668.152031772652  -279.7814100249129 2092.128639873911 2804.342906401973  -697.0403576735266 -1868.365012806157 -298.4534330859115  0.003735464771365892 0.05999715599085838 -0.170087628064675  -311.514444108724 -1039.388851521889 147.5134005660575  468.6190640141842 405.5622579375759 -24.47176989980042  -187.8462044483826 1089.38032874591 1173.023195920848  350.5197141005113 -773.3423709289501 1066.758365383746  -228.3786033846964 112.1679418328379 -2372.530716935705  -481.5087605384859 206.3134473379185 1.898393953053564  92.78558746420225 1232.104554715859 -1018.945796871189  326.4964860073533 -607.1809601434587 -1595.234282972868  -253.756888857342 -114.6529695909555 2300.748641066745  244.4150512850657 914.2559955698802 1855.172539638404  -90.40175570075337 -1041.957300708637 -2016.184222586668  81.06240146038134 -1512.457316283975 9.767237258818112  194.2190425946224 398.1582208852427 -26
[...]
<PointData  Vectors="Forcing"> 
<DataArray  type="Float64"  Name="Forcing"  NumberOfComponents="3" format="ascii">-2.8232500371704123e-05 -2.8611640999776117e-06 -4.8032775516883875e-05  -2.2771810355857232e-05 -1.4882427782907826e-06 5.2495984071478972e-05  -7.0619004577767862e-05 4.3812798071645752e-07 4.9429734215691490e-05  -1.5826849424333100e-04 3.9275589504447048e-06 4.6203097060846513e-05  -1.4876711450439163e-04 -1.0300438962045721e-06 2.1625458936756359e-05  -2.5877176960609796e-04 7.5299214503407090e-06 1.7239306078634228e-05  -2.8104836587363797e-04 -1.1419827127553836e-06 2.7400237774249528e-06  -2.7811550797590771e-04 -8.2586691902708283e-06 -1.4643597005927003e-05  -1.6848451401859672e-04 1.8557266263941271e-06 -2.4874549285479039e-05  -1.5004972152961280e-04 5.4708919749201858e-07 -4.1780846917202604e-05  -6.9447624606847920e-05 8.8683120587330551e-06 -4.1269333944482026e-05  -9.5006653375932125e-05 1.4404208410656864e-05 4.4769278202852795e-05  -1.0408103984574580e-04 -1.5009618169831172e-05 -5.0406036825347518e-05  -2.3444950093032933e-04 9.4818004500387705e-06 5.7561712331008183e-06  -1.6246915210606122e-04 1.2572068553157087e-05 -3.7701566343603921e-05  -2.0773728876056257e-04 -1.0200255425615509e-05 -2.3880651812756535e-05  -2.1342206253085436e-04 -1.3362530667001708e-05 2.5242145229684229e-05  -1.0902785109874962e-04 -1.2030759075751039e-05 4.8141255499504832e-05  -4.0060227553612291e-05 1.3675916829626481e-05 -4.8483441199944014e-05  -1.7187984938220381e-04 1.6763643283651037e-05 3.7271916364062996e-05  -1.2515792421015733e-04 2.8829654581629570e-05 3.9462781167551146e-05  -1.8990536528808719e-04 3.2730765441629114e-05 2.6211195606471860e-05  -1.3099604286529086e-04 4.1461031172093052e-05 2.3097818600665934e-05  -1.5878210828380876e-04 2.7171539550808838e-05 9.0124964346379650e-06  -1.0314905047657559e-04 3.8334134346533738e-05 1.0837279313546262e-05  -1.4609090953591664e-04 3.5132204340910412e-05 -5.3704992920696008e-06  -9.6026616681455689e-05 4.6495252495363777e-05 -5.8778048621508811e-06  -1.1005647866303085e-04 3.9028519957260793e-05 -1.9070598593060240e-05  -3.5912393826445730e-05 3.7505642381312404e-05 -1.9123242944964838e-05  -5.2613974045168910e-05 1.5359813524063828e-05 -2.1290865340101933e-05  6.9712140402738250e-06 4.2937062499491679e-05 -3.1849633757903002e-05  -1.9073011055253025e-04 4.1201126759684408e-05 -1.7133206013899425e-05  -1.7187475990378188e-04 -1.4606039569398543e-05 -3.3407109419145789e-05  -1.5659546301316488e-04 -2.0062243326649359e-05 -2.3301456011536528e-05  -2.1012104777314540e-04 -1.7124425150510287e-05 -1.5384420242200177e-05  -2.3330779144677845e-05 3.3224097912200909e-05 -4.7472129828196115e-05  -9.9233857018234540e-05 2.5142295634952100e-05 -4.1718757408863698e-05  -1.3882140686430564e-04 -2.9055599743171753e-05 -3.8862466031561657e-05  -1.3285017266605653e-04 -3.7745250348243199e-05 -2.4242008708292499e-05  -2.2480199613000558e-04 8.0187302275098849e-07 -7.4770482031820742e-06  -2.1336370266722686e-04 2.5414562685103241e-05 -2.3462435457301402e-06  -2.2104470823850882e-04 7.8204051450312979e-06 2.3579387648619096e-05  -3.3638725103024064e-05 -2.1320831615520915e-05 5.7457529495053261e-05  -1.6286737434484085e-04 -1.0306024336155184e-05 3.4954735225535589e-05  -1.5917058944862179e-04 -1.9140514874747824e-05 2.4344943159084845e-05  -4.8200830353475336e-05 2.1175073203938665e-05 1.9479224067411301e-05  2.2823469254473052e-05 4.3634916250533428e-05 -1.9701197733745020e-05  -5.2285402454021631e-05 2.6543631332279610e-05 4.3295918328995860e-05  -2.3886075958194408e-04 -2.3881129707042911e-05 1.5324480833226856e-05  -1.5565719194902294e-04 -2.1110101558624831e-05 1.2991366313375361e-05  -1.0682742856031022e-04 -3.5375007846487138e-05 2.8876893211941327e-05  -1.2025857627572618e-04 -4.4006073320982198e-05 1.7681699962286058e-05  -3.7034345988152921e-05 -4.1734099536386861e-05 3.1427776256159967e-05  -1.5732932622967783e-05 -5.1872478345090210e-05 1.7762146777443488e-05  4.2629133200283006e-05 -4.3316996700445521e-05 2.4515740230113284e-05  5.4380818288942978e-05 -2.7331937096545398e-05 8.2131574890659261e-06  1.1692727089872183e-04 -4.3181685231584370e-05 2.2604768750908423e-05  1.0427869923558922e-05 -4.2384383137923744e-05 -1.7915356217925224e-06  7.7811272073015787e-05 3.3615914502590831e-05 -2.6223083616791384e-05  8.3772502486631348e-05 3.1136133521973197e-05 -1.3966349066295462e-05  1.3966705059030089e-04 -3.7085425886618860e-05 5.6757328273757458e-06  1.9995497986140349e-04 -3.0988649995101107e-05 1.4208409125463524e-05  1.4139500830158159e-04 -1.0750315537383547e-05 -3.2784505262719911e-06  2.4525006442542921e-04 -2.4094963644133744e-05 7.6419453373589150e-06  2.5471284197580064e-04 -2.0844900387031049e-05 -1.0141307362359632e-05  1.6774652779453299e-04 -5.2298370324695493e-06 2.0019535725055649e-05  1.9693244407225974e-04 -1.6072690514124346e-05 -1.6034527084296903e-05  2.4858492423306171e-04 -5.0609416107337407e-06 1.6166326321250123e-05  2.0781257777023761e-04 -1.1721291669338668e-05 -2.2913309274844689e-05  2.0847759576386119e-04 1.3065259170122449e-06 2.6762939462047675e-05  2.4686353108557786e-04 3.6251170238873232e-06 1.9976032786549930e-05  1.5690709421200462e-04 -2.3911307035785002e-05 -2.9435152613738943e-05  4.9336663997394438e-05 1.8201463680098719e-05 -4.3103356168078595e-05  1.4677662830529385e-04 3.2868476400772162e-05 -2.4273295969245991e-05  2.1035149360329960e-04 1.0767661302412921e-05 3.6611157735375182e-05  1.9061389381459958e-04 1.3196788614452439e-05 2.6136696981190490e-05  2.5575097275431374e-04 1.9465038755406739e-06 -1.1720415611727725e-05  9.4033513717148775e-05 -3.6195760051075620e-05 3.6107799121692875e-05  1.5107830772934870e-04 -9.9224771103012325e-06 -2.7108981606631982e-05  -6.8838427911909906e-05 -3.7674445490442406e-05 -4.1748092198019158e-05  2.4572021400359360e-04 1.1822922507950222e-05 7.1621925014528768e-06  1.7005448196832687e-04 2.0125617970620725e-06 4.3473720609882924e-05  1.3410369104105638e-04 -1.5781981966001314e-05 -4.4793371863606249e-05  1.2638223551605086e-04 1.6812839564043633e-05 3.7192901692680360e-05  1.4279848427088375e-04 2.7820691633818791e-05 2.9652353476422831e-05  1.4253285805612006e-04 -3.0112977411401770e-05 -2.1542931323729394e-05  7.1643550969732435e-05 3.9934011869948696e-05 -4.9043672220573093e-06  1.2643133605158723e-04 -3.0896185188821078e-06 -4.3027793618330273e-05  2.0292934805804413e-04 1.1781061424055351e-06 -3.6925026276962814e-05  8.4427256260104753e-05 3.6502584081047495e-05 3.7354666729408555e-05  7.1369698451726957e-05 2.3019156373400147e-05 1.8100562726749712e-05  6.0725232502628714e-05 1.6762472924950313e-05 4.4969685890352824e-05  -1.2372579137259965e-04 -2.8710158300807366e-05 -1.9011823591459408e-06  1.7719526034858083e-04 2.8598173416257757e-05 -1.2382226018932629e-05  1.7152005418645964e-04 4.8671081768509034e-06 -1.4062621379713776e-05  -5.7939288696353087e-05 -4.1616878048223196e-05 -2.7706077750516080e-05  7.7209437276558745e-06 -4.2018918713004669e-05 -3.5958875083959651e-05  1.5147895820047190e-07 -2.5226919261514405e-05 -4.5876418802393670e-05  7.9249594567129051e-05 -1.5969568649555618e-05 -5.7369115210183786e-05  1.3243896733054747e-04 2.8306063554434315e-05 -4.2133973812655308e-05  -7.1989713016137389e-05 -3.5700037843097268e-05 4.3392663690088612e-05  1.7200118731819795e-04 4.0068956569771909e-05 1.6488678089108842e-05  2.4248531881080986e-05 -2.2226774316315168e-05 4.1209617084799524e-05  4.5536627754839639e-05 -2.2161449694480411e-05 5.2813265458253555e-05  3.1472520624863519e-05 -5.4395347030938210e-05 -1.9465476986463691e-05  5.8900401609299278e-05 -2.7637769524740165e-06 -5.9271039788871371e-05  2.2098344806523687e-05 3.7470804214112532e-05 3.0584622221380313e-05  1.2574377611729255e-04 6.4943490903189484e-06 -4.5145123045648942e-05  1.5641882832393168e-04 5.2233191444480749e-06 -2.9786042742731164e-05  1.9690567983723828e-04 6.3503095550601665e-06 -1.9596574279490037e-05  2.0745392493227326e-04 8.6351699438712461e-06 -8.1026673304940881e-06  2.7178272459439586e-04 5.6881693642167382e-06 6.4289332485574907e-06  1.0495230435837464e-04 -2.1038915034719610e-05 4.6690892025233744e-05  1.5012009636604072e-04 -2.8025117869811371e-05 3.4504855933824415e-05  9.1256122653640542e-06 5.2189000203805747e-05 2.2723699809910293e-05  2.1919469032294687e-05 -3.4810806173555471e-05 3.8582352609206981e-05  -1.1233143716021792e-04 -4.8057743464146411e-05 -1.4590923307964260e-05  -2.4086233475875744e-04 1.1642575220994807e-05 -2.1168177995457181e-05  -1.6665091357099542e-07 1.0318626891595900e-05 4.6257730753572827e-05  -3.3654853274715201e-05 5.3658866243802987e-05 1.0481302561881277e-05  9.9886228835815598e-05 -2.9617583654822936e-05 -4.1353846150796696e-05  -2.6874646961080900e-04 -1.0314378877956459e-05 9.7316567145602012e-06  -1.5822697613259774e-04 -2.5685946817259631e-05 -1.2874272221668671e-05  -2.1343506594327877e-04 -3.6938871349348758e-05 -4.1079216622762946e-06  1.9487114743539050e-04 2.0161904201013971e-05 1.2301396698050763e-05  1.0579361235739264e-04 -4.7057510798540686e-05 -3.6404876105313716e-06  1.2779881523404508e-04 -1.3800543558439239e-05 -8.0195538969876115e-06  2.3270077600305534e-05 3.5423293571432419e-05 4.5854687890326893e-05  4.4631279437649615e-05 7.1863794053091231e-06 5.2106613709743742e-05  9.6193110603005547e-05 1.0776769612865942e-05 3.6399007871721729e-05  -6.5040716882295931e-05 -5.1720579985525094e-05 4.2417241935890076e-06  -2.7850836918508172e-05 5.4273069586639524e-05 -8.1468545204318852e-06  -1.6409112743098904e-04 2.9973426896623123e-05 -3.0308525551395251e-05  -2.6781958788724825e-04 -1.2826588051929151e-05 -6.3693290430021097e-06  -1.1380698142971845e-04 1.1735246479431463e-05 -4.6156368818393709e-05  2.2344165355072689e-04 1.9113063983122567e-05 -9.9953120335019595e-07  3.5146044210820611e-05 2.2977649985407948e-05 -3.7366160139628718e-05  -1.2110485902926265e-04 -2.3294201291454453e-05 3.7616784282435891e-05  2.3670591374716900e-04 -6.6300515375930013e-07 -2.7071262901209058e-05  -5.3311783353198733e-05 2.1676115902622796e-05 2.7505499260093040e-05  -6.2929011171061858e-05 -2.4081152726893935e-05 -4.9587343495278307e-05  -3.4164912536006672e-05 -2.9022355739474110e-05 -1.1074438203073753e-05  1.4938374567006536e-04 -2.6609746103391142e-05 2.7377261647048546e-05  -2.1894275974084122e-04 2.2845230136615154e-05 8.9205231796619646e-06  -1.4641393017066665e-05 -1.5351774074015118e-05 -5.1253476688084871e-05  -2.0619348788580537e-04 1.8031918673924297e-05 -2.7188133333774849e-05  2.6883549113942149e-04 -1.2003699136163771e-05 1.7230795403809145e-06  1.4023715744577498e-04 4.7367894300128521e-05 -1.4170930614415862e-07  7.6852028746325011e-05 3.5090702971775630e-05 1.1398151591171732e-05  -2.4762678870352635e-04 -2.4101797584449757e-05 -2.4760873669106248e-06  4.9455912286869007e-05 -2.3143225824643972e-06 -3.9865619225724636e-05  -5.2275557252171697e-05 -2.4638681150333505e-05 4.5945860687336968e-05  1.2046292186895068e-04 7.4123999711911698e-06 4.6651920495608486e-05  1.1001272321867225e-04 -4.1578407732027131e-05 -1.4911486574665481e-05  -2.4957147277730973e-04 2.0304606681943839e-05 -1.4885553777263206e-05  2.6656259509173506e-05 4.7698028147193658e-05 2.0604311289138974e-06  1.4578713765086207e-04 -6.9886961504003852e-06 3.4041352534119567e-05  1.2391213023626752e-04 -1.0223243107188472e-05 5.4001404137457393e-05  8.8782562622517902e-05 -4.4278897667743312e-05 -2.8495266062930149e-05  2.1355149503340191e-04 4.4401601115566907e-05 1.2124006599256840e-06  8.2259682656817718e-06 1.3490274846633799e-05 -1.7694973862624610e-06  1.2067777206360242e-04 2.6202222627237741e-05 -3.2782129083449004e-06  -1.9818499604525310e-04 -7.8273124846195144e-06 -1.7667250134599499e-06  8.8852889532250575e-05 -3.3602901571827029e-05 -1.9038572173570266e-05  -1.3501141592306518e-04 2.1468411212404888e-05 -1.4493950501908557e-05  6.7957954567330535e-05 -8.2310509628852007e-06 3.2341779184343743e-05  1.7066992237785866e-04 -6.7735132047454132e-06 -1.9306578998944624e-06  -3.6667719588026061e-05 -4.1806474551990144e-05 1.9087830851557705e-05  -1.2427279726194608e-04 1.9723188697826994e-05 1.8645344645093062e-05  9.4803640030577263e-05 8.7252895976156485e-06 -3.0883048939315378e-05  -1.0581150212604710e-04 -3.3869763772643970e-05 -3.1992458715102132e-05  3.7826295987189850e-05 2.2847766773216979e-05 2.2935869513267699e-05  -2.8067596990112053e-05 3.1016572341422380e-05 1.3561649772826510e-06  -7.9024547608684222e-05 -1.7526936259817207e-05 4.1790776893146458e-05  3.5645823464565404e-05 2.3785843425875941e-05 -2.6815474975450945e-05  -5.5444150725942259e-05 1.4627312318158778e-05 -4.0579077414317909e-05  1.0693871287895304e-04 -2.6301738470575235e-05 1.2141308307523448e-05  1.7194522843334506e-04 1.8969784151975314e-05 1.4179709140515245e-05  -1.6595237534280409e-04 1.0493254838367015e-06 -2.5703215881254714e-05  2.3050487533793723e-05 -2.6542763552410610e-05 -4.4226396782667472e-05  -4.3845658034929048e-05 -5.2572592512698509e-05 -1.5748393902384918e-05  -1.5307827042678290e-04 -3.2381859764742399e-05 2.4455213122932963e-05  -1.3562063784063009e-04 -3.8337704093884734e-05 -1.4141949595538620e-07  1.7874946036579577e-04 -1.4550005255752096e-05 -2.8054401585511772e-05  -2.2997092892046778e-04 1.5175865799584305e-05 3.1426630877352924e-06  3.6085459914658696e-05 -3.8468282261087460e-05 3.9212196473725340e-05  2.0750241433051920e-04 1.6467495298539765e-05 -1.6725045288455921e-05  -1.9694114566360771e-04 -5.7954803154794008e-06 2.3312262258042943e-05  -1.5859703957468846e-04 4.1702142802209831e-05 4.9713810117154000e-06  1.9218166910344239e-04 -1.2230922215364224e-05 2.3883845891907753e-05  -5.0054561523618739e-05 1.3606179202332479e-05 3.9261317779521192e-05  7.6722419458705727e-05 5.0876949530139078e-05 1.6032293377355871e-05  6.7540100765187597e-05 5.2606591413560178e-05 -1.5278220839740709e-05  -8.0932478028838630e-05 4.6258450976341269e-05 -2.1967500570325006e-05  1.6754375995158075e-04 -3.3945722716114237e-05 -4.3267704807669564e-06  -7.0104947847588711e-05 4.3180900895233783e-05 2.8076128708612548e-05  5.7416788462820059e-05 -5.0423716562821925e-05 4.0017331385977858e-06  1.1585883168133315e-04 1.8961276157105566e-05 3.9266927585325844e-05  -2.0679380723850896e-04 -2.6538599899665539e-05 -1.8181145077644916e-05  -2.8053591228911773e-05 -1.7011308862328559e-05 -1.5177666811174496e-05  -6.9789466014452605e-05 -7.4491974203294426e-06 1.9700962631199959e-05  </DataArray> 
</PointData> 
</Piece>
</UnstructuredGrid>
</VTKFile>