<?xml version="1.0"?>
<VTKFile type="UnstructuredGrid"  version="0.1"  >
<UnstructuredGrid>
<Piece  NumberOfPoints="201" NumberOfCells="657">
<Points>
<DataArray  type="Float64"  NumberOfComponents="3"  format="ascii">-0.06861868140509861 0.3732384888975793 5367.725136777759  -0.4268300162692312 0.5967832543280648 -5367.965072865431  305.793764912183 0.7307299161022019 -5101.054615232614  579.2302856676846 0.8822115428084031 -4329.365329180377  792.4458599751928 0.09391997053385771 -3136.864536460858  926.5358771508445 -0.08337041175782504 -1645.285739677843  972.6087996456058 -0.1673169263872056 -0.1288273839842134  926.6829936755029 -0.1294520222970484 1645.30612853394  792.5864256655152 0.4263099114112058 3136.484533606922  579.6720293197865 0.5018256444986049 4329.475985173452  306.2731557840332 0.5292451877739711 5101.026414299227  387.8445905222894 -770.829708404955 -4659.228543473614  385.2560896780786 598.9810456322832 4775.281612769483  928.6730484737652 -709.8132018261183 -788.9293352033558  674.8941343501148 -758.6563481358389 3562.967947117896  847.6142501160505 712.5997034766252 2240.982380886604  843.9813926135199 712.184768149334 -2280.433645139579  432.6886121653624 691.5994842013313 -4596.825925447856  149.5931813421221 -685.6942370463672 5102.660015310159  670.1141448061506 -699.2619721893881 -3638.871660742348  470.2950211490378 -1367.758155815776 -3765.638627127888  695.038870859961 -1356.070597038144 -2587.178232921967  481.2648088132314 -1935.304989108078 -2488.356020768736  674.4753495083702 -1830.696080515428 -1223.246895455295  427.4873006464932 -2318.209744195264 -1040.560497921703  605.1702979362869 -2086.244805641049 262.8162558282926  320.8671317386233 -2477.621736509094 474.9430969097948  463.0239751825557 -2146.131387355391 1801.653582400953  167.8565989916487 -2399.703652219925 1917.912407050037  296.4562740358337 -1942.392859728286 3170.513188221775  -11.44977200830685 -2085.032556883012 3177.891564009265  702.8093157727633 -1692.187824523199 1517.818288578712  670.3732601758675 699.5846994840464 3638.937208733412  681.5229834482296 1363.946870176525 2676.340539876391  821.3077966485462 1318.923675357196 1208.898298563485  110.7433629768754 -1535.058855500308 4254.617460893503  403.3634826920972 -1350.917006117603 4007.519418945098  470.2073613297268 1288.756209439582 3882.625444195926  455.31127902481 1902.440267420347 2716.911874435099  930.3994241041486 -692.1704931583048 788.8170095669775  826.7468643339996 -1428.727515440678 91.28066939696902  849.1301318137623 -713.1976415598325 -2219.203758719625  149.2431157553085 686.6864996813047 -5102.997216501279  663.7528212206919 681.4359663987932 -3689.084518259049  676.3146919898501 1355.839571590151 -2730.49338033206  208.0132857411525 -2325.711106927181 -2160.383570694912  -145.738966802922 -2429.193313502874 1815.658325665177  201.2528107920418 -1392.126426970204 -4368.448994248843  815.6901457343165 1334.385449794794 -1249.515488984154  616.7434317143354 1920.505467684669 -1506.570108564435  439.0452751962263 1851.627631879865 -2923.955695745234  348.8431686777779 2321.665998705221 -1626.563589490822  153.947667086833 2163.601636505301 -2847.543935862286  45.41287063173523 2512.062357452478 -1476.92178847014  -158.1664629813125 2229.582030251411 -2628.179517788192  -261.5070857329456 2471.398781826289 -1113.318690321415  -457.6729016959046 2105.89083332768 -2011.698543634579  -50.36639995957625 2620.288329752537 98.43790409244707  -319.3325633470812 -2009.831640852402 2928.240815044648  -441.5461587249887 -2242.956061666835 1447.726082895974  -537.0346449012478 2200.406109503533 -543.1739569554995  -703.3319095147613 1721.20829749067 -1376.783832158456  -748.0264362314455 1722.204163058379 123.1415140629453  -870.0007136320692 1137.340711294016 -859.349156708735  -881.0526786569648 1080.092262933759 801.569442485778  -775.5294284371063 1069.676915206834 -2450.786721818691  -719.187557145637 1587.443739212952 1728.206612469668  -915.9915930477058 471.0419606839463 -1560.166253247684  -815.3967618496092 881.7196736530576 2358.374158925499  -783.8334984994633 299.4090942806199 -3146.402185092143  -876.9988894343288 -340.9735908287594 -2242.260167771322  -611.8500737205112 1317.314663688624 3208.821554501803  -137.2837546454076 -1056.628474057166 4824.464065624704  -597.8236770580388 -1729.265949243373 2384.311501349136  -706.21259502669 -455.8580302303226 -3595.472857300846  -763.4330363197132 -1079.356047629741 -2543.982990871048  -935.9648215615902 299.6205197845289 1345.836083454595  -333.4821128879028 1724.579719996521 -3565.158710575185  -673.3265030723394 560.9349659994783 3722.689914052957  214.6798134131107 1738.618595296075 3786.083786277249  -904.7418978433968 -893.1810655864006 -902.4991827294781  -574.3131951624679 180.9877493007209 -4335.553246591799  -449.1061919967902 992.1542031635661 4302.812824864548  -553.8126546812391 -1147.137910727972 -3745.114043678684  -581.582623260009 -1725.639475866623 -2508.234416139024  -491.877106104796 1942.738322237557 2406.868756471311  -253.6358109959862 -2535.162418043073 343.9965606952845  -472.0486524703371 166.6524248439688 4693.703452578598  -693.4546927912002 -242.1062906699919 3752.600563265548  -337.2406550438301 -1712.879210079595 -3577.7251907258  -339.956915512316 -2205.426553827711 -2213.826185218559  -289.6443816319933 -1073.019102776399 -4608.383255557334  506.9596801257551 2265.308785166038 -150.6860830913084  -676.144096612294 -1867.964126957326 945.7502205808606  -807.1513249651905 -1260.931602231448 1653.40344289822  179.7226961835895 2260.096725662896 2482.210403142432  -64.75427035756977 2026.505115093781 3316.329280800648  -22.26438943875426 1513.077935676399 4328.064137732904  -268.5652108893708 636.0043007988678 4986.794972119892  -448.3214450994528 -1397.226270797571 3796.424179769916  235.1587037057861 1699.235121743504 -3826.540099156754  -558.5677114933486 -2099.303604121892 -1165.543632533265  -73.98819693722673 1292.590035718151 -4610.302490050694  -163.2472421477683 551.2055756149058 -5163.806803652329  -111.9573290641188 2441.363370641254 1815.325332169859  -209.5338423146516 -390.2118190338693 5179.05893265991  -72.58373650832614 -2125.746817652079 -3044.708162088229  -451.5355876611769 -630.5871723974184 4579.529773797165  -693.3189670387604 -1032.381234336549 3147.430560843132  -856.6023845354293 -500.2772854666163 2359.347365963054  -934.5839952741708 -654.9702178815794 746.8268403950667  -968.3267949766877 -85.4289952301681 -462.1596399332565  -381.4000574053208 1102.583800685534 -4378.912045265706  -576.4741822586002 1230.588464241938 -3526.940200724687  -85.68416453024663 -2460.671822001455 -1750.042115859419  -34.07605636177647 1908.171480602328 -3605.498630572333  399.6709259720653 2304.200949914561 1395.207170699858  843.9941028737803 -681.4078033707198 2321.862707307578  49.38849938584848 -718.8792408871152 -5139.80920140368  159.1552951176558 -2558.502112851382 -823.3957285998554  -303.5206125348417 1648.792818206946 3783.812754103627  932.4111005957349 664.7516712113478 -805.8206138405147  634.6389051405131 1904.441351671271 1372.695207488361  745.0643637034068 1732.566342682532 -60.86777425017252  -753.5637115103141 -1564.276652068158 -1348.250482523811  -332.939611065182 2468.959760628406 415.7944038124937  -554.5427499616961 2130.975633912336 976.4580052313376  -54.22565880350243 -1569.288378419722 -4231.855418292845  -231.386118796867 -283.1850026594618 -5183.081620668527  -485.8755096084262 -458.4065228909759 -4565.611905019943  232.6278044784251 2550.546091071373 -273.1549148449582  27.40051927188343 -2606.233564588648 594.0550228429503  548.3365294664819 -1644.393250392824 2907.888701988205  934.0308159562799 673.6434456996126 715.0962963132127  433.2279200445981 -685.3590288332256 4599.125358883226  -831.2580899588634 -1408.078725945049 131.4802218246835  -178.57298615399 -1699.114892097282 3910.448321560674  483.0074029604722 1248.948347555778 -3890.368995862193  -837.8600196183169 208.9987612534726 2716.490813731389  224.3960746079874 -1927.232665205056 -3366.061434607065  243.7801811260497 1230.51149573321 4514.884723375278  143.5689128282682 2534.371939202342 1123.591837028712  -616.7947107300156 1637.260036246904 -2507.027971282866  821.6454984418798 -1269.645283992289 -1392.906041041116  -15.11910802606685 662.3341325262465 5180.986346984054  746.2102545635335 -1227.940633561505 2422.819203421755  -946.4616511072101 630.5212301795708 -121.0326935636354  -516.6139380149084 -2251.766411590557 51.4911321028021  -317.2986335350758 -2451.925622407083 -885.7498768814423  879.1701504845364 1167.164983224004 -37.07527739548369  -222.078712793609 1262.384823998553 4509.014107472934  275.9733015480236 1145.654223537686 -4557.066930201386  -334.2774599060593 188.0869726738817 -5033.421361644656  -366.3605334021873 2290.170822775137 1697.986651344992  834.9413382444284 -1180.780209416611 1465.245370411571  -68.6645611015819 -2604.491037847826 -536.8632368218176  -632.4885227087606 672.0221977543343 -3860.205530160218  -434.0493231292999 565.6441530335143 -4668.430817191044  -279.776750042921 2092.030945403857 2804.526458813561  -697.0245005018025 -1868.240841308042 -298.4753215274454  0.003751101650488003 0.06021254634171057 -0.1695041936378787  -311.5100593224763 -1039.312431439097 147.5250038484183  468.6141658681482 405.5323338692705 -24.47329046888646  -187.8439117934494 1089.305057170025 1173.115874713439  350.5155015829783 -773.28765572673 1066.843768502211  -228.3767298606102 112.1619189973585 -2372.711602615305  -481.5040427833167 206.2983397463951 1.898748897222768  92.78434764187617 1232.019544711722 -1019.025165298098  326.4936705907473 -607.1394275031566 -1595.359546623406  -253.755590044394 -114.6467727165839 2300.925079782789  244.4121254381395 914.1969691686882 1855.315368182555  -90.40033819517744 -1041.892228048986 -2016.336944035647  81.06093891716947 -1512.349643773772 9.768209116444405  194.2181275456071 398.136
[...]
<PointData  Vectors="Self-Gravity"> 
<DataArray  type="Float64"  Name="Self-Gravity"  NumberOfComponents="3" format="ascii">-2.8232566462449975e-05 -2.8704306327694844e-06 -4.8032618428812788e-05  -2.2760787913644308e-05 -1.5026255117699209e-06 5.2495428579725106e-05  -7.8018298942504890e-05 4.2111408676403011e-07 4.9429142576178359e-05  -1.7227983027054360e-04 3.9072298584431737e-06 4.6200231072491868e-05  -1.6793393958641255e-04 -1.0326004999854549e-06 2.1623064497457047e-05  -2.8118634438094276e-04 7.5327212061251355e-06 1.7237340187861304e-05  -3.0457819818373517e-04 -1.1388195602521365e-06 2.7397590568552908e-06  -3.0053390792155463e-04 -8.2573904852320811e-06 -1.4642189217915026e-05  -1.8765564406710548e-04 1.8456389219995686e-06 -2.4871930866735042e-05  -1.6407045990727293e-04 5.3527552254515254e-07 -4.1778184344445306e-05  -7.6859047914365364e-05 8.8565405210644691e-06 -4.1268906605798984e-05  -1.0438458841425955e-04 3.3030542909682557e-05 4.4765255784488021e-05  -1.1339947961404718e-04 -2.9484607156445936e-05 -5.0403585675552393e-05  -2.5691592573106150e-04 2.6617981171929656e-05 5.7554024726039485e-06  -1.7879258458430549e-04 3.0898338959575192e-05 -3.7698528475006436e-05  -2.2824127843650013e-04 -2.7407275261469715e-05 -2.3878159627230912e-05  -2.3383900536979175e-04 -3.0560526448184842e-05 2.5239519277917168e-05  -1.1949199240442869e-04 -2.8742124663971512e-05 4.8137872773444841e-05  -4.3675871251496178e-05 3.0249740155290747e-05 -4.8481237856193033e-05  -1.8808812927057468e-04 3.3655946508520834e-05 3.7268678914095803e-05  -1.3652782897270071e-04 6.1870460912746624e-05 3.9457775450446387e-05  -2.0671279764430161e-04 6.5480357155918708e-05 2.6207445237079649e-05  -1.4262878914471445e-04 8.8198362581097089e-05 2.3093194494916331e-05  -1.7509199576357473e-04 7.1373683707308863e-05 9.0110113823208186e-06  -1.1348126737726785e-04 9.4307301449428398e-05 1.0835125402910092e-05  -1.6072364805726677e-04 8.5503037217665877e-05 -5.3693338057962619e-06  -1.0377872320136686e-04 1.0631478430679227e-04 -5.8764139790328134e-06  -1.2125251307171999e-04 9.0854056213429454e-05 -1.9067261659860844e-05  -3.9967964348782583e-05 9.5451856171830269e-05 -1.9118772028943337e-05  -5.9779425850424678e-05 6.2274085281683700e-05 -2.1286776833597560e-05  7.2496605046990149e-06 9.3296693177554713e-05 -3.1842649855737119e-05  -2.0772553799207561e-04 8.2061553821102164e-05 -1.7130366226142884e-05  -1.8809019144694778e-04 -3.1505885372625892e-05 -3.3404174005452605e-05  -1.7307910696716318e-04 -5.3001784696182879e-05 -2.3298302059222334e-05  -2.2998808166912801e-04 -4.8968925871456505e-05 -1.5382333154027209e-05  -2.6007694287202200e-05 7.0312524080746140e-05 -4.7465617086109879e-05  -1.0898691499346366e-04 5.7779616765966103e-05 -4.1714325977603384e-05  -1.5019170144424637e-04 -6.0190235110148613e-05 -3.8858157501693755e-05  -1.4385716132351057e-04 -8.3690823011180318e-05 -2.4237602000398501e-05  -2.4731234064553274e-04 1.7511057752926521e-05 -7.4763568829884436e-06  -2.3336192331702916e-04 5.9908742071944552e-05 -2.3459771501363143e-06  -2.4158631229098792e-04 2.5041720265674224e-05 2.3576955312185687e-05  -3.7249116279651830e-05 -3.7918353294679378e-05 5.7455729133031300e-05  -1.7892333502894417e-04 -2.6767205060366023e-05 3.4951814136079805e-05  -1.7552797546952623e-04 -5.1884727905169442e-05 2.4341575256180069e-05  -5.3227047213750986e-05 7.7335722889932895e-05 1.9475218044209389e-05  2.6346943467985071e-05 1.0229181278180111e-04 -1.9696095555463897e-05  -5.7150296733408691e-05 6.0181679188079318e-05 4.3291474713996481e-05  -2.5859193931105972e-04 -5.6100100532054478e-05 1.5322475122820109e-05  -1.7057154432951582e-04 -6.7482482313214231e-05 1.2989416132309662e-05  -1.1744184464803583e-04 -8.0095431912347086e-05 2.8871910553298033e-05  -1.2868945111577958e-04 -1.0006517229185926e-04 1.7677524946050554e-05  -4.0753748054587486e-05 -9.3986060365070857e-05 3.1420811626086462e-05  -1.6829478297457126e-05 -1.1252661209800291e-04 1.7757754825905264e-05  4.6448693056734682e-05 -9.7161071853595055e-05 2.4509930951511337e-05  6.0700125439730765e-05 -8.7005005036320615e-05 8.2112534795264157e-06  1.2798962105328352e-04 -9.4034630748869748e-05 2.2600568638128301e-05  1.1644873750420116e-05 -1.0564836586360512e-04 -1.7912498120590411e-06  8.5528228642686610e-05 8.2157208592127179e-05 -2.6217798276182519e-05  9.4449940569403250e-05 8.5295712600644863e-05 -1.3963747405957669e-05  1.5264987111126332e-04 -9.0213063448239486e-05 5.6745210645512887e-06  2.1696233970972610e-04 -7.2548515779091052e-05 1.4206263871223500e-05  1.5948505425893028e-04 -5.2327562567670815e-05 -3.2778113001297257e-06  2.6629466043436478e-04 -5.1555380619925338e-05 7.6409558500675516e-06  2.7602496853862841e-04 -4.6922139374236472e-05 -1.0140023644808797e-05  1.8650626826574186e-04 -3.1059589359347087e-05 2.0017601567046707e-05  2.1432771805030763e-04 -5.4403111462638287e-05 -1.6032452826682897e-05  2.7074340879244075e-04 -1.6433851187167815e-05 1.6164747795214680e-05  2.2753517488791628e-04 -3.3012468168655836e-05 -2.2910707495885752e-05  2.2743751997034891e-04 -5.9233311891998507e-06 2.6760439386809815e-05  2.6807870447349472e-04 1.1858382376944973e-05 1.9974042538790042e-05  1.7170400888193355e-04 -5.5729654291037753e-05 -2.9431738768887529e-05  5.2656188472239374e-05 4.3737020980988341e-05 -4.3100303033939736e-05  1.6123140326101056e-04 7.4628706977631281e-05 -2.4269234713637558e-05  2.2743444074949473e-04 2.1780012287028587e-05 3.6608398710287346e-05  2.0907982804417699e-04 3.9261939217311152e-05 2.6133897585772525e-05  2.7839416517508721e-04 -5.2858333443300592e-06 -1.1719141582000946e-05  1.0209469414176028e-04 -7.7854172465576736e-05 3.6102236262293090e-05  1.6736384428088733e-04 -2.3472348642317563e-05 -2.7106040445432388e-05  -7.4026236875322172e-05 -7.9672348539235171e-05 -4.1740861208290564e-05  2.6760801818685563e-04 3.3386426800458936e-05 7.1614290550318160e-06  1.8394675650887217e-04 -2.3595194745737854e-06 4.3471062314412437e-05  1.4496190666323796e-04 -3.9752892618949236e-05 -4.4789102823830953e-05  1.3977627958227303e-04 4.4524035887050021e-05 3.7189447484666759e-05  1.5686262369486720e-04 6.9494421343151499e-05 2.9648346850730075e-05  1.5442319832206439e-04 -7.7028842396537368e-05 -2.1538711646234965e-05  7.7773457619817015e-05 1.0114198327953204e-04 -4.9031771373888655e-06  1.3785091364723368e-04 -7.1165676047633643e-06 -4.3025742590430088e-05  2.1970523373996114e-04 7.0275699441938745e-06 -3.6922531937854194e-05  9.2578723935136291e-05 7.7879552020852509e-05 3.7348772215508066e-05  7.9587649395566410e-05 7.6275636275453722e-05 1.8096484342558669e-05  6.7728808934880208e-05 4.2691125621719456e-05 4.4965429542931491e-05  -1.3598447652590987e-04 -8.3404248117763981e-05 -1.9007663577034606e-06  1.9354775412253503e-04 7.3699794568109943e-05 -1.2380267500268179e-05  1.9104654418617637e-04 3.5311090733644442e-05 -1.4061012270660307e-05  -6.2280714523760573e-05 -9.6193746386224736e-05 -2.7699644635563093e-05  9.2844363418197958e-06 -9.0966529839530753e-05 -3.5952255522874199e-05  6.8991447121344185e-07 -6.1783581105794887e-05 -4.5870991313412637e-05  8.5745914334560484e-05 -3.1339222464406325e-05 -5.7366656287843568e-05  1.4327890271015271e-04 6.2059595444343080e-05 -4.2128706244961690e-05  -7.7674842013739754e-05 -7.6749733166044565e-05 4.3386359833054569e-05  1.8550416297181393e-04 9.0756292275906937e-05 1.6485496626254435e-05  2.6037053775982868e-05 -5.3461403042753796e-05 4.1205365174905840e-05  4.9485437966682572e-05 -3.5485198747797798e-05 5.2811623276820820e-05  3.4175894202166886e-05 -1.1334344912688195e-04 -1.9460274262003167e-05  6.3969062554153247e-05 6.6670726205596180e-06 -5.9269648634757679e-05  2.3852895322505236e-05 8.8811725635055800e-05 3.0577965810824717e-05  1.3666461884980906e-04 2.1732463203008476e-05 -4.5142013848188041e-05  1.7318858464102497e-04 3.0157035852415576e-05 -2.9783142598821195e-05  2.1762709933351482e-04 1.8431197229715345e-05 -1.9594397544851062e-05  2.3006554137195998e-04 2.4447795744920286e-05 -8.1016796319112781e-06  2.9520917015394437e-04 7.7517206447845462e-06 6.4282744143066180e-06  1.1417452360045757e-04 -4.7679146818270746e-05 4.6686119008818357e-05  1.6406029886382022e-04 -5.7751463002462572e-05 3.4500429802366737e-05  1.1198011385423166e-05 1.1160587803779480e-04 2.2718301106668324e-05  2.2741945448811405e-05 -8.0902320293775164e-05 3.8575169228832386e-05  -1.2199260714533017e-04 -1.0369532900794935e-04 -1.4587862964881689e-05  -2.6127915386848772e-04 2.8097327003002390e-05 -2.1166128157038757e-05  -1.3614224736684243e-06 2.7694380504175293e-05 4.6255906350809139e-05  -3.7498817575030374e-05 1.1543166154030831e-04 1.0478622395767288e-05  1.0722084588444161e-04 -6.9447157409809919e-05 -4.1347880256789086e-05  -2.9130570563355907e-04 -2.6363676236972714e-05 9.7305461367112077e-06  -1.7357375383185347e-04 -7.1670156104302739e-05 -1.2872443829297963e-05  -2.3145499909627121e-04 -7.8770248532186984e-05 -4.1072289255853210e-06  2.1309929186683264e-04 5.7931605653371949e-05 1.2299998942999499e-05  1.1383857975348250e-04 -1.0666909692257189e-04 -3.6395906753692983e-06  1.4120771850246742e-04 -6.5252595165199233e-05 -8.0182120824162855e-06  2.4581247485933918e-05 7.3338521778813253e-05 4.5848389310453103e-05  5.0228391470344606e-05 1.4031786211392312e-05 5.2105491491631136e-05  1.0794196088657640e-04 2.1853687421943444e-05 3.6395832114246993e-05  -7.0663137464232770e-05 -1.1330112544903163e-04 4.2409827646355469e-06  -2.8510328714565587e-05 1.1719746172526666e-04 -8.1443762370636668e-06  -1.7734515237975270e-04 6.9687845827110160e-05 -3.0303731670057929e-05  -2.9041607570870769e-04 -2.9090947272773593e-05 -6.3685762184327612e-06  -1.2428344233913425e-04 2.8296293655395375e-05 -4.6152718646544117e-05  2.4355156327527530e-04 5.3107981737429671e-05 -9.9923319038482063e-07  3.9462228445200293e-05 6.4023920664161682e-05 -3.7359545096166913e-05  -1.3278406325777572e-04 -5.3467110448882314e-05 3.7612472799728681e-05  2.5697389880764406e-04 -5.7090901595782911e-06 -2.7068608012359104e-05  -5.8734535368186358e-05 6.8225717634317197e-05 2.7499941574343432e-05  -6.8823916008175305e-05 -5.3814897954333635e-05 -4.9583063961349783e-05  -3.7636316044871057e-05 -9.0214226904650790e-05 -1.1071496286107502e-05  1.6429687512582380e-04 -6.6149814759355394e-05 2.7373379495052618e-05  -2.3881611611262338e-04 5.3500797431038783e-05 8.9192968423018534e-06  -1.4277417757317809e-05 -3.1359981237236011e-05 -5.1251762919453172e-05  -2.2424295857705436e-04 4.7685768341592344e-05 -2.7184931812865559e-05  2.9173370088364460e-04 -2.7225676513286693e-05 1.7229562384383856e-06  1.5272707640304859e-04 1.0173522519886692e-04 -1.4136831865247593e-07  8.4522278086458620e-05 9.4291700903711002e-05 1.1395654688028570e-05  -2.6889360373750777e-04 -5.2281565056429418e-05 -2.4757243640013732e-06  5.4824600824054844e-05 -3.2815048403895045e-05 -3.9861929820375246e-05  -5.8948977734714377e-05 -5.2321525331776990e-05 4.5940622356209296e-05  1.2855048297929510e-04 2.8682089812485883e-06 4.6650959404915541e-05  1.1886593678503199e-04 -9.6878099954041073e-05 -1.4908001947847703e-05  -2.6976630951708894e-04 4.8814670223303245e-05 -1.4883765924614437e-05  2.8317304253552254e-05 1.1058036486617241e-04 2.0595123476892146e-06  1.6108337808448881e-04 -2.3222448825947608e-05 3.4038460399328777e-05  1.3440842002476917e-04 -2.3891711248833652e-05 5.3997976149345368e-05  9.5540682504163791e-05 -9.4801497524739169e-05 -2.8488750661332348e-05  2.3040704936352354e-04 8.9509744010168700e-05 1.2122684735837193e-06  8.2258496199034383e-06 1.3490768407666328e-05 -1.7693728710027841e-06  1.2821458443189860e-04 5.1289662300008283e-05 -3.2778045485884166e-06  -2.0952248876385181e-04 -1.7616592281845556e-05 -1.7666134939841971e-06  9.3395715787390849e-05 -5.9897281090451472e-05 -1.9035237321012590e-05  -1.4349059187876485e-04 4.0135513832987289e-05 -1.4492226477330677e-05  7.3483251418729397e-05 -1.0940012825579369e-05 3.2339609708141718e-05  1.8232027158916322e-04 -1.1753800542984612e-05 -1.9303093055733284e-06  -3.8913256328634505e-05 -7.1545781509650282e-05 1.9084321520040947e-05  -1.3217160733101568e-04 3.4380466063381450e-05 1.8643439434184544e-05  1.0094340454057356e-04 1.1494287845082009e-05 -3.0880729040004699e-05  -1.1172389500490037e-04 -5.5940285345438700e-05 -3.1988395282602243e-05  4.0014266080934006e-05 4.8001321091422578e-05 2.2933137676036518e-05  -3.0027640321838371e-05 6.7521277984177201e-05 1.3558211566275175e-06  -8.3724080784170748e-05 -2.7140876082863248e-05 4.1787983176733676e-05  3.7507419120359341e-05 5.2064397065291340e-05 -2.6811994431319375e-05  -5.9567590556038961e-05 1.8053806849197102e-05 -4.0576711367206507e-05  1.1492750567176045e-04 -5.4086516507285689e-05 1.2139385607824771e-05  1.8365704760370038e-04 3.2237653993498770e-05 1.4177977053021129e-05  -1.7787298764382025e-04 -6.1460934913047382e-07 -2.5701058612107504e-05  2.4650422380832471e-05 -4.3589541648816842e-05 -4.4222974366628591e-05  -4.6321092674452008e-05 -9.1559304206810101e-05 -1.5745220044369305e-05  -1.6322150756180515e-04 -5.5417071763912231e-05 2.4451900494677123e-05  -1.4579397638970497e-04 -7.0767880579854066e-05 -1.4143923424479313e-07  1.9036930054445347e-04 -2.9194124701514501e-05 -2.8051780098998395e-05  -2.4421825889075631e-04 2.7387240508064870e-05 3.1422521586304388e-06  3.8959076481551951e-05 -6.3896748475992352e-05 3.9207246538333049e-05  2.2121792589270783e-04 2.9960137784538883e-05 -1.6723137814541357e-05  -2.1034536912039906e-04 -8.1028423912364152e-06 2.3310136377517361e-05  -1.6859280682748458e-04 7.3623873740944664e-05 4.9705670372255251e-06  2.0495720530339356e-04 -2.3975594503093208e-05 2.3881573957989799e-05  -5.3018732420598061e-05 2.5979955405371533e-05 3.9258643853196740e-05  8.1378973070547430e-05 9.0892990104652125e-05 1.6028916820833034e-05  7.2059417574048943e-05 9.4713583828612367e-05 -1.5274758180694527e-05  -8.6298285053454209e-05 8.3308071657855548e-05 -2.1963394764008012e-05  1.7920816800760339e-04 -6.5706063249921574e-05 -4.3260859898644402e-06  -7.4623508921680033e-05 7.9276196558866668e-05 2.8071158442924270e-05  6.0659077934638055e-05 -9.3120444936138242e-05 4.0008826531399050e-06  1.2365833200809941e-04 3.4925976632826099e-05 3.9263773399043985e-05  -2.2019763908743238e-04 -4.7274915558432977e-05 -1.8178941799355484e-05  -2.9740632611111400e-05 -3.6259850363439657e-05 -1.5176477794190946e-05  -7.4789985480302118e-05 -1.7808319600717324e-05 1.9699172633294980e-05  </DataArray> 
</PointData> 
</Piece>
</UnstructuredGrid>
</VTKFile>