<?xml version="1.0"?>
<VTKFile type="UnstructuredGrid"  version="0.1"  >
<UnstructuredGrid>
<Piece  NumberOfPoints="201" NumberOfCells="657">
<Points>
<DataArray  type="Float64"  NumberOfComponents="3"  format="ascii">-0.06801229471385659 0.3748379063386293 5367.432998537076  -0.4273593474910514 0.5967953253088908 -5367.672497375959  305.7920121430607 0.7308871721882326 -5100.765278338152  579.2295604063696 0.88255791356596 -4329.092665197961  792.4489237567676 0.09356428563064495 -3136.642101317329  926.5434948627521 -0.08387009092517199 -1645.157352394633  972.6188012104485 -0.1677083371844035 -0.1293047058077892  926.6911717365301 -0.1292150610900632 1645.177533564163  792.5901474234912 0.4275370121634006 3136.261487810533  579.6723040113546 0.5033363700746885 4329.203989358318  306.2725533780805 0.5308110265079879 5100.737633931492  387.8435908558029 -770.84745727633 -4658.952001990384  385.2559041334299 598.9952146884253 4775.000441892048  928.6837757034846 -709.8634888979575 -788.8664329416861  674.8976799371957 -758.6853752747326 3562.727786969688  847.6222831886636 712.6416706343142 2240.814134948103  843.9886654767807 712.2254065327684 -2280.26335260306  432.6879042618025 691.6161819052802 -4596.549980331763  149.5933191127332 -685.7032753956764 5102.374172110042  670.116363280583 -699.2898850063593 -3638.627901631091  470.2978893049062 -1367.807721923589 -3765.397803881548  695.0470756787205 -1356.141719041363 -2586.994729339169  481.2731162962696 -1935.403831414332 -2488.1868508995  674.4892380089018 -1830.811314652139 -1223.157702314493  427.4987290159529 -2318.351514908452 -1040.488024186528  605.1857118633436 -2086.380520997839 262.7970203967724  320.8769250842248 -2477.775764086109 474.9101330006275  463.0349402143372 -2146.252543806587 1801.528718522645  167.8611161172709 -2399.833060016726 1917.784212652942  296.4611213701066 -1942.473670197845 3170.308748414146  -11.4494973947197 -2085.117865935016 3177.689239387905  702.8228931643267 -1692.291466168573 1517.706759763397  670.3763420055366 699.6134038627116 3638.693643913116  681.5315797489159 1364.016841635427 2676.151944542779  821.3210496780245 1319.009960154633 1208.8060549516  110.7444518422238 -1535.100506999799 4254.36263833745  403.3662493906069 -1350.959292261909 4007.269051957534  470.2107262940424 1288.801660430039 3882.378894165409  455.3193808456942 1902.532813824835 2716.728864783015  930.4102789192071 -692.2186323183678 788.7540718278788  826.7616180479361 -1428.826042105904 91.27319918589174  849.1375342953301 -713.2395885342902 -2219.037631069201  149.2421888892388 686.6973579304723 -5102.711299317832  663.7548618058017 681.4617721172011 -3688.838171021218  676.3222600699208 1355.907250779032 -2730.302059573948  208.0178061156797 -2325.833264130585 -2160.240312883152  -145.7425824467395 -2429.326055652814 1815.536859756611  201.2531466967621 -1392.163151812006 -4368.188036561244  815.7029858848585 1334.471754185412 -1249.420842970571  616.7566386212064 1920.620516415565 -1506.462044795265  439.0516411098478 1851.712191706673 -2923.761723662983  348.8520527013404 2321.797923281721 -1626.452144074964  153.9501822019786 2163.699590907905 -2847.359608263898  45.41408665643294 2512.204729844017 -1476.822514976701  -158.170074567438 2229.688153231059 -2628.007956676253  -261.5148302015482 2471.545211157811 -1113.242508607466  -457.6830775763946 2106.00578406034 -2011.560340244367  -50.36794574435791 2620.449573978005 98.43071809727549  -319.3376243180722 -2009.921185012054 2928.049089888647  -441.5572005230044 -2243.087766142807 1447.625435567272  -537.0490999340253 2200.545781445369 -543.1353619449993  -703.3459281700871 1721.315144434224 -1376.682352580054  -748.0423096619501 1722.319674719222 123.1321902051067  -870.0135343185991 1137.417413102703 -859.2826578400131  -881.0651445253515 1080.166060721686 801.5065432408242  -775.537967406905 1069.735141915441 -2450.608541001562  -719.19944744807 1587.53941448248 1728.079597596427  -916.0006491714886 471.0723146022958 -1560.045111956033  -815.4041926617123 881.7700034664057 2358.199678711424  -783.8376971442832 299.4231590062009 -3146.178980556716  -877.0060526425548 -340.9941951608519 -2242.090583812239  -611.8555170496417 1317.373381988386 3208.603913399691  -137.2832719518492 -1056.64751875925 4824.186775305404  -597.8332273433213 -1729.356836333069 2384.144816152973  -706.2155092743197 -455.876734325936 -3595.228973093738  -763.4413382220038 -1079.414280333541 -2543.799379488362  -935.9734477550579 299.6410207042038 1345.729557768615  -333.4862866894251 1724.644324162106 -3564.931877329583  -673.3281174570825 560.9576715534341 3722.441787743246  214.6824179127487 1738.679583174404 3785.848596637482  -904.7534806582155 -893.2432211253096 -902.4287403210125  -574.313646905057 180.9929271140313 -4335.281010231373  -449.1066175876326 992.183954325151 4302.547991641014  -553.8164347307568 -1147.180129667416 -3744.87078256497  -581.5921973071372 -1725.729223400855 -2508.061326164482  -491.8857376726967 1942.839290558343 2406.704512739791  -253.6436791296495 -2535.319718654223 343.9729563531203  -472.04722525634 166.6577230961362 4693.422063873614  -693.4556105706852 -242.1138106523935 3752.348883542064  -337.2448549500902 -1712.943610399715 -3577.49785138477  -339.9648395440624 -2205.542615040405 -2213.677855447681  -289.6452423297135 -1073.04402685198 -4608.111648870212  506.9739640012653 2265.453440521696 -150.6754413373661  -676.1589033840187 -1868.0838818318 945.6807870854502  -807.1626926960397 -1261.009745894342 1653.279082565238  179.7269313069264 2260.208564101881 2482.047104896169  -64.75480541991365 2026.587439681707 3316.119338872759  -22.26402271736606 1513.120012596696 4327.806865641031  -268.5639282394677 636.0176406987229 4986.510833119394  -448.3240284517833 -1397.274454565304 3796.182699953143  235.1604206897916 1699.292498583532 -3826.302400775254  -558.5815301410365 -2099.43388875876 -1165.460948758511  -73.98891830945891 1292.619418745381 -4610.034085837256  -163.2473110251751 551.2136943857404 -5163.518696320655  -111.9599767102243 2441.497385063845 1815.203246138799  -209.5325176837171 -390.2163154500584 5178.769762730336  -72.58541627997057 -2125.839169076033 -3044.513796279866  -451.5348631147746 -630.60069747351 4579.253603692854  -693.3237499370988 -1032.427242955481 3147.213406935634  -856.6085031787898 -500.3051640833465 2359.1705886681  -934.5946614891516 -655.0163846061502 746.7676816725293  -968.3362465740125 -85.4356867751484 -462.1224899800587  -381.4015615482214 1102.61331244457 -4378.646313076943  -576.4790571721597 1230.63659529678 -3526.706707461236  -85.68678357641019 -2460.808265771076 -1749.925657638908  -34.07693664209965 1908.240881525238 -3605.274425390692  399.6817015605952 2304.336476340141 1395.110144030968  844.0018693414886 -681.4464537503204 2321.68888753087  49.38779876351342 -718.8900003394094 -5139.523410918578  159.1600063699116 -2558.657292196978 -823.3398670879182  -303.5230502173926 1648.851267212458 3783.575377385221  932.4216987401398 664.7972929742746 -805.7567659498363  634.6527770382553 1904.557940385728 1372.595717392295  745.0804439767493 1732.682561790295 -60.86303347024221  -753.5775232618613 -1564.376345832062 -1348.150411215752  -332.9495851882342 2469.113048645122 415.7650485929652  -554.556649557342 2131.108618599566 976.3878209947604  -54.22656415603011 -1569.332632634228 -4231.601920961042  -231.3857901092998 -283.1892718146059 -5182.791771805895  -485.8756038392798 -458.4178977152514 -4565.334863046539  232.6352019447236 2550.70388233726 -273.1364606288311  27.40146434621102 -2606.392507007254 594.0147154632288  548.3441160139377 -1644.469349559923 2907.692040734412  934.0416992170193 673.6904364005555 715.0390919657768  433.228193452653 -685.3737235285718 4598.849356396841  -831.2726508567872 -1408.17641163932 131.4699211466209  -178.5740736406288 -1699.169265575314 3910.208469292504  483.0097808694529 1248.990611688987 -3890.12120338812  -837.8645093913223 209.01082894419 2716.291201570456  224.3986969307217 -1927.309635286187 -3365.848058936026  243.781187406752 1230.543229079539 4514.617473215046  143.5734143372094 2534.521575049911 1123.515346727774  -616.8043224245761 1637.344633992988 -2506.853551723786  821.6574006774329 -1269.727371342817 -1392.800778057911  -15.11861467467921 662.3457977907894 5180.699401038393  746.2191683783918 -1228.006804985184 2422.644321214153  -946.472820766399 630.5660070015603 -121.0230538054086  -516.6281631970891 -2251.911019242311 51.48754085365422  -317.3080870887837 -2452.07545182126 -885.6892247811583  879.1839951569599 1167.246094357531 -37.07247791019339  -222.0787200104353 1262.417397283296 4508.747726867597  275.9732232419065 1145.681535538362 -4556.797382420167  -334.2770278861994 188.0903916629628 -5033.133432640525  -366.3695470357255 2290.300729193347 1697.869759844443  834.9533383179795 -1180.855646577226 1465.133367530712  -68.66680939446316 -2604.650566971315 -536.826785002821  -632.4910268248193 672.045971935521 -3859.952566919935  -434.0495546623687 565.6570471144745 -4668.152031772652  -279.7814100249129 2092.128639873911 2804.342906401973  -697.0403576735266 -1868.365012806157 -298.4534330859115  0.003735464771365892 0.05999715599085838 -0.170087628064675  -311.514444108724 -1039.388851521889 147.5134005660575  468.6190640141842 405.5622579375759 -24.47176989980042  -187.8462044483826 1089.38032874591 1173.023195920848  350.5197141005113 -773.3423709289501 1066.758365383746  -228.3786033846964 112.1679418328379 -2372.530716935705  -481.5087605384859 206.3134473379185 1.898393953053564  92.78558746420225 1232.104554715859 -1018.945796871189  326.4964860073533 -607.1809601434587 -1595.234282972868  -253.756888857342 -114.6529695909555 2300.748641066745  244.4150512850657 914.2559955698802 1855.172539638404  -90.40175570075337 -1041.957300708637 -2016.184222586668  81.06240146038134 -1512.457316283975 9.767237258818112  194.2190425946224 398.1582208852427 -26
[...]
<PointData  Vectors="Tidal Force"> 
<DataArray  type="Float64"  Name="Tidal Force"  NumberOfComponents="3" format="ascii">5.6925014237785872e-17 1.8496058335901121e-17 0.0000000000000000e+00  -2.7324006834137219e-16 -8.8781080012325410e-17 0.0000000000000000e+00  3.6581152649485956e-13 1.1885937007816782e-13 0.0000000000000000e+00  6.9282296328524438e-13 2.2511182679458538e-13 0.0000000000000000e+00  9.4763071201642133e-13 3.0790388311774600e-13 0.0000000000000000e+00  1.1081080196541636e-12 3.6004612117248490e-13 0.0000000000000000e+00  1.1632569734477305e-12 3.7796510248830575e-13 0.0000000000000000e+00  1.1082674096940295e-12 3.6009791013582548e-13 0.0000000000000000e+00  9.4792102958903411e-13 3.0799821301525918e-13 0.0000000000000000e+00  6.9319866837921362e-13 2.2523390077960230e-13 0.0000000000000000e+00  3.6628969661445696e-13 1.1901473696818936e-13 0.0000000000000000e+00  1.6453036865147253e-13 5.3459157408255020e-14 0.0000000000000000e+00  6.9291404330802477e-13 2.2514142048792282e-13 0.0000000000000000e+00  8.3553397397937347e-13 2.7148144504268947e-13 0.0000000000000000e+00  5.1264960072122830e-13 1.6656995255562475e-13 0.0000000000000000e+00  1.2898468201097189e-12 4.1909663701568280e-13 0.0000000000000000e+00  1.2853497439849337e-12 4.1763544840714663e-13 0.0000000000000000e+00  7.8554242647574998e-13 2.5523820661210120e-13 0.0000000000000000e+00  -8.7294509333644632e-14 -2.8363705458104371e-14 0.0000000000000000e+00  5.2998896005805787e-13 1.7220385192474022e-13 0.0000000000000000e+00  3.1621845409090048e-14 1.0274560405593074e-14 0.0000000000000000e+00  3.0511807631453228e-13 9.9138872680430038e-14 0.0000000000000000e+00  -1.7525504133387136e-13 -5.6943814798738784e-14 0.0000000000000000e+00  9.6533439144437288e-14 3.1365615726021126e-14 0.0000000000000000e+00  -3.8791550952339184e-13 -1.2604138952999819e-13 0.0000000000000000e+00  -8.5455831373764161e-14 -2.7766282773854762e-14 0.0000000000000000e+00  -5.7715702685548722e-13 -1.8752968586186788e-13 0.0000000000000000e+00  -2.7877887222670878e-13 -9.0580746488408584e-14 0.0000000000000000e+00  -7.2992099506400937e-13 -2.3716570801209214e-13 0.0000000000000000e+00  -3.9906711981257407e-13 -1.2966476735800127e-13 0.0000000000000000e+00  -8.2235014068190230e-13 -2.6719775793209478e-13 0.0000000000000000e+00  1.8412965105354219e-13 5.9827350293305786e-14 0.0000000000000000e+00  1.0728088183253125e-12 3.4857671539839259e-13 0.0000000000000000e+00  1.3435954185530361e-12 4.3656061529644073e-13 0.0000000000000000e+00  1.4932683584884465e-12 4.8519230147902538e-13 0.0000000000000000e+00  -4.6318176334859225e-13 -1.5049687786172665e-13 0.0000000000000000e+00  -4.1913887983281742e-14 -1.3618647752724002e-14 0.0000000000000000e+00  1.0619247556030479e-12 3.4504026904456820e-13 0.0000000000000000e+00  1.2818773181164286e-12 4.1650718884865660e-13 0.0000000000000000e+00  8.4443704620616308e-13 2.7437422856642444e-13 0.0000000000000000e+00  4.3470787122685184e-13 1.4124514948210893e-13 0.0000000000000000e+00  7.3892083981500320e-13 2.4008993483499805e-13 0.0000000000000000e+00  4.4486898626829664e-13 1.4454669589506733e-13 0.0000000000000000e+00  1.0578603095864700e-12 3.4371965047938496e-13 0.0000000000000000e+00  1.3342426387137681e-12 4.3352171291185217e-13 0.0000000000000000e+00  -6.5326577089140691e-13 -2.1225891585696769e-13 0.0000000000000000e+00  -1.1160262891346397e-12 -3.6261892288700874e-13 0.0000000000000000e+00  -2.9956788742634821e-13 -9.7335506992679673e-14 0.0000000000000000e+00  1.4925511033090504e-12 4.8495925114399317e-13 0.0000000000000000e+00  1.4817125805981761e-12 4.8143760163683750e-13 0.0000000000000000e+00  1.2427755258364938e-12 4.0380224637772626e-13 0.0000000000000000e+00  1.3170000519011427e-12 4.2791925684190764e-13 0.0000000000000000e+00  1.0230222008729448e-12 3.3240006277781340e-13 0.0000000000000000e+00  1.0282536096813977e-12 3.3409985053888285e-13 0.0000000000000000e+00  6.7563160898543291e-13 2.1952601717714328e-13 0.0000000000000000e+00  6.4573459150774786e-13 2.0981188733912803e-13 0.0000000000000000e+00  2.6958548242730630e-13 8.7593633067160517e-14 0.0000000000000000e+00  9.5570267903533962e-13 3.1052662418977680e-13 0.0000000000000000e+00  -1.1610368978924568e-12 -3.7724375621320567e-13 0.0000000000000000e+00  -1.3972415519707256e-12 -4.5399130067219382e-13 0.0000000000000000e+00  2.1123734283357582e-13 6.8635173272861891e-14 0.0000000000000000e+00  -1.7349605839392377e-13 -5.6372286596159449e-14 0.0000000000000000e+00  -2.2664125168632066e-13 -7.3640206658556725e-14 0.0000000000000000e+00  -5.9947163243669924e-13 -1.9478014072954117e-13 0.0000000000000000e+00  -6.3493022380541602e-13 -2.0630133546697393e-13 0.0000000000000000e+00  -5.1253005819132885e-13 -1.6653111083311937e-13 0.0000000000000000e+00  -2.4434493111427212e-13 -7.9392480801021983e-14 0.0000000000000000e+00  -9.1290076082994811e-13 -2.9661943792701269e-13 0.0000000000000000e+00  -6.3317124086546846e-13 -2.0572980726439461e-13 0.0000000000000000e+00  -8.2117179288718019e-13 -2.6681488952454166e-13 0.0000000000000000e+00  -1.1809777303799532e-12 -3.8372292544827194e-13 0.0000000000000000e+00  -2.2055027516287760e-13 -7.1661128416615323e-14 0.0000000000000000e+00  -5.7408876858807054e-13 -1.8653274831756284e-13 0.0000000000000000e+00  -1.3850766764281109e-12 -4.5003869300581182e-13 0.0000000000000000e+00  -1.0211721379102172e-12 -3.3179894088189663e-13 0.0000000000000000e+00  -1.3312768454719794e-12 -4.3255806827255172e-13 0.0000000000000000e+00  -1.0032862984367047e-12 -3.2598747935275647e-13 0.0000000000000000e+00  2.7037104762378777e-13 8.7848878672195962e-14 0.0000000000000000e+00  -5.8747753193679773e-13 -1.9088302123816675e-13 0.0000000000000000e+00  9.3095737534617408e-13 3.0248638763116057e-13 0.0000000000000000e+00  -1.4281632197046909e-12 -4.6403835956025541e-13 0.0000000000000000e+00  -6.1638405416674539e-13 -2.0027531966113733e-13 0.0000000000000000e+00  -1.5196132550776939e-13 -4.9375227727688044e-14 0.0000000000000000e+00  -1.1069467493637127e-12 -3.5966880158243249e-13 0.0000000000000000e+00  -1.3642591987213523e-12 -4.4327468447237272e-13 0.0000000000000000e+00  1.6544116887927708e-13 5.3755094341629432e-14 0.0000000000000000e+00  -1.2858848391187688e-12 -4.1780931135550396e-13 0.0000000000000000e+00  -4.9964223496789418e-13 -1.6234360322587131e-13 0.0000000000000000e+00  -9.2304479836712166e-13 -2.9991543552247025e-13 0.0000000000000000e+00  -1.0674123269755704e-12 -3.4682328906814916e-13 0.0000000000000000e+00  -1.2613843129908258e-12 -4.0984860784773219e-13 0.0000000000000000e+00  -7.6250487321371793e-13 -2.4775285180356197e-13 0.0000000000000000e+00  1.4840066586719589e-12 4.8218299278777436e-13 0.0000000000000000e+00  -1.5323303032584155e-12 -4.9788429670912085e-13 0.0000000000000000e+00  -1.4538819411373225e-12 -4.7239487871641552e-13 0.0000000000000000e+00  1.0911671354169985e-12 3.5454169421172061e-13 0.0000000000000000e+00  7.0860257723195857e-13 2.3023893416529717e-13 0.0000000000000000e+00  5.6039830266388300e-13 1.8208444628777862e-13 0.0000000000000000e+00  -7.4241603568920341e-14 -2.4122559281682251e-14 0.0000000000000000e+00  -1.0778239120796616e-12 -3.5020621813778549e-13 0.0000000000000000e+00  9.4016784264984775e-13 3.0547904986990947e-13 0.0000000000000000e+00  -1.4814165705241394e-12 -4.8134142213349077e-13 0.0000000000000000e+00  4.1310482832361209e-13 1.3422589534363449e-13 0.0000000000000000e+00  1.8790947199893117e-14 6.1055488566809602e-15 0.0000000000000000e+00  8.1286074080846340e-13 2.6411446500750016e-13 0.0000000000000000e+00  -4.0187352301449688e-13 -1.3057662303396112e-13 0.0000000000000000e+00  -9.1114747039142437e-13 -2.9604975933026702e-13 0.0000000000000000e+00  -7.8442669619668941e-13 -2.5487568386871756e-13 0.0000000000000000e+00  -1.2292558349550197e-12 -3.9940943252294956e-13 0.0000000000000000e+00  -1.2183319247227883e-12 -3.9586003892829016e-13 0.0000000000000000e+00  -1.3716025255580270e-12 -4.4566067599770394e-13 0.0000000000000000e+00  -1.1912982354612639e-12 -3.8707626082457078e-13 0.0000000000000000e+00  -2.8120957033466218e-14 -9.1370528179351549e-15 0.0000000000000000e+00  -2.1184074798449635e-13 -6.8831231491222431e-14 0.0000000000000000e+00  -1.0564656467376442e-12 -3.4326649705015535e-13 0.0000000000000000e+00  6.9942057243540365e-13 2.2725551995571628e-13 0.0000000000000000e+00  1.3709251178885971e-12 4.4544057290350659e-13 0.0000000000000000e+00  7.4508012635553169e-13 2.4209120834694256e-13 0.0000000000000000e+00  -2.1994117751053329e-13 -7.1463220592421180e-14 0.0000000000000000e+00  -8.0177174803494272e-13 -2.6051143284366663e-13 0.0000000000000000e+00  2.7679788173123381e-13 8.9937083658319238e-14 0.0000000000000000e+00  1.3727922583555965e-12 4.4604724361692432e-13 0.0000000000000000e+00  1.4968717118896985e-12 4.8636310197168791e-13 0.0000000000000000e+00  1.5622842457503381e-12 5.0761692260547202e-13 0.0000000000000000e+00  -1.5072776044923656e-12 -4.8974418143549079e-13 0.0000000000000000e+00  5.5937365240760283e-13 1.8175151723773237e-13 0.0000000000000000e+00  1.6339186836671679e-13 5.3089236241536994e-14 0.0000000000000000e+00  -6.7360507847856779e-13 -2.1886755750038519e-13 0.0000000000000000e+00  -3.8645822915890452e-13 -1.2556789043659915e-13 0.0000000000000000e+00  -7.5866812725409117e-13 -2.4650621747172218e-13 0.0000000000000000e+00  1.2667580343348728e-12 4.1159463575464125e-13 0.0000000000000000e+00  -9.7769850453682000e-13 -3.1767350113076897e-13 0.0000000000000000e+00  1.7737834436494079e-14 5.7633717774667902e-15 0.0000000000000000e+00  1.3781716722010673e-12 4.4779512112966683e-13 0.0000000000000000e+00  2.5194442051501648e-13 8.1861704588864761e-14 0.0000000000000000e+00  -1.5396850150979370e-12 -5.0027398744611929e-13 0.0000000000000000e+00  -8.7251815572966295e-13 -2.8349833414352438e-13 0.0000000000000000e+00  1.0618052130731485e-12 3.4500142732206290e-13 0.0000000000000000e+00  -9.2093288033889978e-13 -2.9922923175820837e-13 0.0000000000000000e+00  -4.7933138988785215e-13 -1.5574420961162180e-13 0.0000000000000000e+00  7.6876093227845064e-13 2.4978556861467752e-13 0.0000000000000000e+00  1.1541375861668373e-12 3.7500203394289449e-13 0.0000000000000000e+00  -1.0241948561662434e-13 -3.3278108157953301e-14 0.0000000000000000e+00  4.9026099262150708e-13 1.5929545281211488e-13 0.0000000000000000e+00  2.3894843976452998e-13 7.7639054470778573e-14 0.0000000000000000e+00  4.1605923656255320e-13 1.3518584077126774e-13 0.0000000000000000e+00  -8.8757482199555731e-13 -2.8839054157337030e-13 0.0000000000000000e+00  -1.4902968727452341e-12 -4.8422680723389148e-13 0.0000000000000000e+00  -1.3297057150790166e-12 -4.3204757706248093e-13 0.0000000000000000e+00  1.5036913285953853e-12 4.8857892976032901e-13 0.0000000000000000e+00  2.2434717361253789e-13 7.2894815507619917e-14 0.0000000000000000e+00  7.7433958367375377e-13 2.5159818233159577e-13 0.0000000000000000e+00  -3.2657880668217751e-13 -1.0611188667306472e-13 0.0000000000000000e+00  4.5018009009668201e-13 1.4627237813780684e-13 0.0000000000000000e+00  5.4062824521910012e-13 1.7566076522772018e-13 0.0000000000000000e+00  -1.0917819255707667e-12 -3.5474145164174848e-13 0.0000000000000000e+00  -4.9549809393138335e-13 -1.6099709017901776e-13 0.0000000000000000e+00  -2.9938003487936349e-13 -9.7274470000171229e-14 0.0000000000000000e+00  4.7695761679413645e-13 1.5497292397901478e-13 0.0000000000000000e+00  -1.5573830020244649e-12 -5.0602441198275102e-13 0.0000000000000000e+00  2.8462507118892936e-17 9.2480291679505607e-18 0.0000000000000000e+00  -7.7530730891579603e-13 -2.5191261532330615e-13 0.0000000000000000e+00  7.1767073200003787e-13 2.3318535625820631e-13 0.0000000000000000e+00  1.9756395441365965e-13 6.4192420060578429e-14 0.0000000000000000e+00  1.1950268238938389e-13 3.8828775264557243e-14 0.0000000000000000e+00  -2.2964689243807576e-13 -7.4616798538692296e-14 0.0000000000000000e+00  -4.9598764905382831e-13 -1.6115615628070653e-13 0.0000000000000000e+00  5.8846233468311148e-13 1.9120300304737788e-13 0.0000000000000000e+00  1.5516620380935674e-13 5.0416555811999284e-14 0.0000000000000000e+00  -3.4793137952277100e-13 -1.1304975815486123e-13 0.0000000000000000e+00  6.4662831423128102e-13 2.1010227545500157e-13 0.0000000000000000e+00  -5.1196080804895106e-13 -1.6634615024976035e-13 0.0000000000000000e+00  -4.8921357235953178e-13 -1.5895512533873430e-13 0.0000000000000000e+00  3.8661192669734655e-13 1.2561782979410609e-13 0.0000000000000000e+00  -5.4603042907026589e-13 -1.7741604116379710e-13 0.0000000000000000e+00  1.4880767971899605e-13 4.8350546095879132e-14 0.0000000000000000e+00  5.1192665304040840e-14 1.6633505261475884e-14 0.0000000000000000e+00  -7.9195787558034836e-13 -2.5732271238655717e-13 0.0000000000000000e+00  6.1598557906708092e-13 2.0014584725278603e-13 0.0000000000000000e+00  1.9464939368468503e-13 6.3245421873780298e-14 0.0000000000000000e+00  7.4839885468559474e-13 2.4316952854792572e-13 0.0000000000000000e+00  8.7122595790646533e-13 2.8307847361929951e-13 0.0000000000000000e+00  1.0235345260010852e-12 3.3256652730283652e-13 0.0000000000000000e+00  -3.3933000987144159e-13 -1.1025500374030660e-13 0.0000000000000000e+00  5.0832329963915648e-13 1.6516425212209627e-13 0.0000000000000000e+00  2.6618705907731052e-13 8.6489418384507236e-14 0.0000000000000000e+00  -8.9463352376104279e-13 -2.9068405280702206e-13 0.0000000000000000e+00  6.9967104249805001e-13 2.2733690261239424e-13 0.0000000000000000e+00  -1.8318469581719498e-14 -5.9520315724929822e-15 0.0000000000000000e+00  -4.4301892330556858e-13 -1.4394557399915046e-13 0.0000000000000000e+00  -5.2143313041811858e-14 -1.6942389435685430e-14 0.0000000000000000e+00  -8.7273447078376653e-13 -2.8356861916520083e-13 0.0000000000000000e+00  -8.9948922747552599e-13 -2.9226176658307434e-13 0.0000000000000000e+00  -3.2956736992966131e-13 -1.0708292973569956e-13 0.0000000000000000e+00  -6.6755964196651505e-14 -2.1690327610511251e-14 0.0000000000000000e+00  -3.5612288907158844e-13 -1.1571134094939741e-13 0.0000000000000000e+00  5.2521295136350761e-13 1.7065203263035812e-13 0.0000000000000000e+00  -6.4184661303530703e-13 -2.0854860655478592e-13 0.0000000000000000e+00  9.9551603399324687e-13 3.2346276738990606e-13 0.0000000000000000e+00  3.9242397065102450e-13 1.2750627735020160e-13 0.0000000000000000e+00  4.1352607342897173e-13 1.3436276617532015e-13 0.0000000000000000e+00  </DataArray> 
</PointData> 
</Piece>
</UnstructuredGrid>
</VTKFile>