<?xml version="1.0"?>
<VTKFile type="UnstructuredGrid"  version="0.1"  >
<UnstructuredGrid>
<Piece  NumberOfPoints="201" NumberOfCells="657">
<Points>
<DataArray  type="Float64"  NumberOfComponents="3"  format="ascii">-0.06861868140509861 0.3732384888975793 5367.725136777759  -0.4268300162692312 0.5967832543280648 -5367.965072865431  305.793764912183 0.7307299161022019 -5101.054615232614  579.2302856676846 0.8822115428084031 -4329.365329180377  792.4458599751928 0.09391997053385771 -3136.864536460858  926.5358771508445 -0.08337041175782504 -1645.285739677843  972.6087996456058 -0.1673169263872056 -0.1288273839842134  926.6829936755029 -0.1294520222970484 1645.30612853394  792.5864256655152 0.4263099114112058 3136.484533606922  579.6720293197865 0.5018256444986049 4329.475985173452  306.2731557840332 0.5292451877739711 5101.026414299227  387.8445905222894 -770.829708404955 -4659.228543473614  385.2560896780786 598.9810456322832 4775.281612769483  928.6730484737652 -709.8132018261183 -788.9293352033558  674.8941343501148 -758.6563481358389 3562.967947117896  847.6142501160505 712.5997034766252 2240.982380886604  843.9813926135199 712.184768149334 -2280.433645139579  432.6886121653624 691.5994842013313 -4596.825925447856  149.5931813421221 -685.6942370463672 5102.660015310159  670.1141448061506 -699.2619721893881 -3638.871660742348  470.2950211490378 -1367.758155815776 -3765.638627127888  695.038870859961 -1356.070597038144 -2587.178232921967  481.2648088132314 -1935.304989108078 -2488.356020768736  674.4753495083702 -1830.696080515428 -1223.246895455295  427.4873006464932 -2318.209744195264 -1040.560497921703  605.1702979362869 -2086.244805641049 262.8162558282926  320.8671317386233 -2477.621736509094 474.9430969097948  463.0239751825557 -2146.131387355391 1801.653582400953  167.8565989916487 -2399.703652219925 1917.912407050037  296.4562740358337 -1942.392859728286 3170.513188221775  -11.44977200830685 -2085.032556883012 3177.891564009265  702.8093157727633 -1692.187824523199 1517.818288578712  670.3732601758675 699.5846994840464 3638.937208733412  681.5229834482296 1363.946870176525 2676.340539876391  821.3077966485462 1318.923675357196 1208.898298563485  110.7433629768754 -1535.058855500308 4254.617460893503  403.3634826920972 -1350.917006117603 4007.519418945098  470.2073613297268 1288.756209439582 3882.625444195926  455.31127902481 1902.440267420347 2716.911874435099  930.3994241041486 -692.1704931583048 788.8170095669775  826.7468643339996 -1428.727515440678 91.28066939696902  849.1301318137623 -713.1976415598325 -2219.203758719625  149.2431157553085 686.6864996813047 -5102.997216501279  663.7528212206919 681.4359663987932 -3689.084518259049  676.3146919898501 1355.839571590151 -2730.49338033206  208.0132857411525 -2325.711106927181 -2160.383570694912  -145.738966802922 -2429.193313502874 1815.658325665177  201.2528107920418 -1392.126426970204 -4368.448994248843  815.6901457343165 1334.385449794794 -1249.515488984154  616.7434317143354 1920.505467684669 -1506.570108564435  439.0452751962263 1851.627631879865 -2923.955695745234  348.8431686777779 2321.665998705221 -1626.563589490822  153.947667086833 2163.601636505301 -2847.543935862286  45.41287063173523 2512.062357452478 -1476.92178847014  -158.1664629813125 2229.582030251411 -2628.179517788192  -261.5070857329456 2471.398781826289 -1113.318690321415  -457.6729016959046 2105.89083332768 -2011.698543634579  -50.36639995957625 2620.288329752537 98.43790409244707  -319.3325633470812 -2009.831640852402 2928.240815044648  -441.5461587249887 -2242.956061666835 1447.726082895974  -537.0346449012478 2200.406109503533 -543.1739569554995  -703.3319095147613 1721.20829749067 -1376.783832158456  -748.0264362314455 1722.204163058379 123.1415140629453  -870.0007136320692 1137.340711294016 -859.349156708735  -881.0526786569648 1080.092262933759 801.569442485778  -775.5294284371063 1069.676915206834 -2450.786721818691  -719.187557145637 1587.443739212952 1728.206612469668  -915.9915930477058 471.0419606839463 -1560.166253247684  -815.3967618496092 881.7196736530576 2358.374158925499  -783.8334984994633 299.4090942806199 -3146.402185092143  -876.9988894343288 -340.9735908287594 -2242.260167771322  -611.8500737205112 1317.314663688624 3208.821554501803  -137.2837546454076 -1056.628474057166 4824.464065624704  -597.8236770580388 -1729.265949243373 2384.311501349136  -706.21259502669 -455.8580302303226 -3595.472857300846  -763.4330363197132 -1079.356047629741 -2543.982990871048  -935.9648215615902 299.6205197845289 1345.836083454595  -333.4821128879028 1724.579719996521 -3565.158710575185  -673.3265030723394 560.9349659994783 3722.689914052957  214.6798134131107 1738.618595296075 3786.083786277249  -904.7418978433968 -893.1810655864006 -902.4991827294781  -574.3131951624679 180.9877493007209 -4335.553246591799  -449.1061919967902 992.1542031635661 4302.812824864548  -553.8126546812391 -1147.137910727972 -3745.114043678684  -581.582623260009 -1725.639475866623 -2508.234416139024  -491.877106104796 1942.738322237557 2406.868756471311  -253.6358109959862 -2535.162418043073 343.9965606952845  -472.0486524703371 166.6524248439688 4693.703452578598  -693.4546927912002 -242.1062906699919 3752.600563265548  -337.2406550438301 -1712.879210079595 -3577.7251907258  -339.956915512316 -2205.426553827711 -2213.826185218559  -289.6443816319933 -1073.019102776399 -4608.383255557334  506.9596801257551 2265.308785166038 -150.6860830913084  -676.144096612294 -1867.964126957326 945.7502205808606  -807.1513249651905 -1260.931602231448 1653.40344289822  179.7226961835895 2260.096725662896 2482.210403142432  -64.75427035756977 2026.505115093781 3316.329280800648  -22.26438943875426 1513.077935676399 4328.064137732904  -268.5652108893708 636.0043007988678 4986.794972119892  -448.3214450994528 -1397.226270797571 3796.424179769916  235.1587037057861 1699.235121743504 -3826.540099156754  -558.5677114933486 -2099.303604121892 -1165.543632533265  -73.98819693722673 1292.590035718151 -4610.302490050694  -163.2472421477683 551.2055756149058 -5163.806803652329  -111.9573290641188 2441.363370641254 1815.325332169859  -209.5338423146516 -390.2118190338693 5179.05893265991  -72.58373650832614 -2125.746817652079 -3044.708162088229  -451.5355876611769 -630.5871723974184 4579.529773797165  -693.3189670387604 -1032.381234336549 3147.430560843132  -856.6023845354293 -500.2772854666163 2359.347365963054  -934.5839952741708 -654.9702178815794 746.8268403950667  -968.3267949766877 -85.4289952301681 -462.1596399332565  -381.4000574053208 1102.583800685534 -4378.912045265706  -576.4741822586002 1230.588464241938 -3526.940200724687  -85.68416453024663 -2460.671822001455 -1750.042115859419  -34.07605636177647 1908.171480602328 -3605.498630572333  399.6709259720653 2304.200949914561 1395.207170699858  843.9941028737803 -681.4078033707198 2321.862707307578  49.38849938584848 -718.8792408871152 -5139.80920140368  159.1552951176558 -2558.502112851382 -823.3957285998554  -303.5206125348417 1648.792818206946 3783.812754103627  932.4111005957349 664.7516712113478 -805.8206138405147  634.6389051405131 1904.441351671271 1372.695207488361  745.0643637034068 1732.566342682532 -60.86777425017252  -753.5637115103141 -1564.276652068158 -1348.250482523811  -332.939611065182 2468.959760628406 415.7944038124937  -554.5427499616961 2130.975633912336 976.4580052313376  -54.22565880350243 -1569.288378419722 -4231.855418292845  -231.386118796867 -283.1850026594618 -5183.081620668527  -485.8755096084262 -458.4065228909759 -4565.611905019943  232.6278044784251 2550.546091071373 -273.1549148449582  27.40051927188343 -2606.233564588648 594.0550228429503  548.3365294664819 -1644.393250392824 2907.888701988205  934.0308159562799 673.6434456996126 715.0962963132127  433.2279200445981 -685.3590288332256 4599.125358883226  -831.2580899588634 -1408.078725945049 131.4802218246835  -178.57298615399 -1699.114892097282 3910.448321560674  483.0074029604722 1248.948347555778 -3890.368995862193  -837.8600196183169 208.9987612534726 2716.490813731389  224.3960746079874 -1927.232665205056 -3366.061434607065  243.7801811260497 1230.51149573321 4514.884723375278  143.5689128282682 2534.371939202342 1123.591837028712  -616.7947107300156 1637.260036246904 -2507.027971282866  821.6454984418798 -1269.645283992289 -1392.906041041116  -15.11910802606685 662.3341325262465 5180.986346984054  746.2102545635335 -1227.940633561505 2422.819203421755  -946.4616511072101 630.5212301795708 -121.0326935636354  -516.6139380149084 -2251.766411590557 51.4911321028021  -317.2986335350758 -2451.925622407083 -885.7498768814423  879.1701504845364 1167.164983224004 -37.07527739548369  -222.078712793609 1262.384823998553 4509.014107472934  275.9733015480236 1145.654223537686 -4557.066930201386  -334.2774599060593 188.0869726738817 -5033.421361644656  -366.3605334021873 2290.170822775137 1697.986651344992  834.9413382444284 -1180.780209416611 1465.245370411571  -68.6645611015819 -2604.491037847826 -536.8632368218176  -632.4885227087606 672.0221977543343 -3860.205530160218  -434.0493231292999 565.6441530335143 -4668.430817191044  -279.776750042921 2092.030945403857 2804.526458813561  -697.0245005018025 -1868.240841308042 -298.4753215274454  0.003751101650488003 0.06021254634171057 -0.1695041936378787  -311.5100593224763 -1039.312431439097 147.5250038484183  468.6141658681482 405.5323338692705 -24.47329046888646  -187.8439117934494 1089.305057170025 1173.115874713439  350.5155015829783 -773.28765572673 1066.843768502211  -228.3767298606102 112.1619189973585 -2372.711602615305  -481.5040427833167 206.2983397463951 1.898748897222768  92.78434764187617 1232.019544711722 -1019.025165298098  326.4936705907473 -607.1394275031566 -1595.359546623406  -253.755590044394 -114.6467727165839 2300.925079782789  244.4121254381395 914.1969691686882 1855.315368182555  -90.40033819517744 -1041.892228048986 -2016.336944035647  81.06093891716947 -1512.349643773772 9.768209116444405  194.2181275456071 398.136
[...]
<PointData  Scalars="Pressure"> 
<DataArray  type="Float64"  Name="Pressure"  format="ascii">-1.4337972710885751e-04  1.9226793393000421e-03  -1.8326208114528286e-03  -9.1634425040227306e-04  -9.2111891212293337e-03  -9.7744869058371438e-03  -7.9382989061791785e-03  -5.6737189170855493e-03  -9.1739419913936769e-03  -3.7499193545130404e-03  -3.2621411270194823e-03  -2.2056523691023162e-03  2.8944633034936485e-03  -9.8564039133451457e-03  -1.8280502768636194e-03  -7.5234850662063528e-03  -7.3812292295878257e-03  -1.7354113967430248e-03  -3.0581980377733791e-04  -3.6812473747107580e-03  2.2116432583050311e-03  1.4143293030100170e-03  2.8321436146489351e-03  -8.5929148541528380e-04  6.8787660488378120e-03  2.0473896006580217e-03  9.0770143796161697e-03  4.3280573488359937e-03  6.9901505303604297e-03  2.8277763115850023e-03  7.1765504224764473e-03  2.2681193567128345e-03  -4.9624457720508783e-03  -3.6561626966917981e-03  -5.7936755743274145e-03  4.7757214809751574e-03  3.3705135246486747e-03  -2.6046441408716329e-04  4.7188751995783287e-03  -1.0356861819473529e-02  -2.7985836710065085e-03  -6.1410950661728832e-03  1.4800924943635103e-03  -4.5353256520977749e-03  -3.4676469134001181e-03  5.8131246457248410e-03  7.3317975952140154e-03  2.7592614147008148e-03  -6.9244378596081829e-04  5.5613296040482423e-04  2.9107800845421831e-03  8.5562119720653494e-03  7.4389451060360851e-03  1.0274512505671456e-02  8.3260584279588774e-03  7.6183269758674866e-03  5.6828215990459997e-03  1.0167126631299022e-02  4.6017494671099241e-03  4.7328432035530429e-03  4.8439547044648668e-03  8.2870253767145484e-04  -3.0245471063837194e-03  -3.6528166732272419e-03  -3.7533909597841052e-03  -6.7055555568667092e-03  -2.3295193831756860e-03  -9.0094430461218449e-03  -6.9355478979147671e-03  -7.6610612193499395e-03  -8.0969733920042228e-03  -2.2275921461793104e-03  3.2025955001540774e-03  3.0910727340020408e-03  -5.3259311168572018e-03  -4.7022531395874388e-03  -7.8523988271114661e-03  3.0176275601637580e-03  -6.6249781569674166e-03  4.8873132625152976e-03  -7.9479682027736812e-03  -3.1493438036831367e-03  4.8683208241723198e-04  -2.4576001765623389e-03  2.5871166873225951e-03  2.8840755263238463e-03  8.2136982212126369e-03  -2.0912416631110706e-03  -3.5838683584465776e-03  3.8965818339515819e-03  4.4645921258951908e-03  -1.7972472056296568e-03  4.5499206487728417e-03  1.7934019553481053e-03  -5.9059012511566700e-03  7.3050144321127660e-03  9.4152480425772657e-03  1.8547504156468304e-03  -1.7263186104471756e-03  4.1663852386361177e-03  7.6250292455371880e-03  6.2332274428240301e-03  6.8282452415304037e-04  2.3591683856143851e-03  1.1314243948983803e-02  2.4609690568646869e-03  6.3594605708044922e-03  -2.3946075459032579e-03  -4.7840220287550589e-03  -9.3276416344054390e-03  -1.0497953097108745e-02  -6.3180950041419968e-03  2.1248139956011377e-03  -1.0955968227836111e-03  9.0892048291218892e-03  4.1384734792285190e-03  6.7083623731189704e-03  -5.6570425125391371e-03  -1.1631725727490212e-03  1.0850016210955424e-02  5.5724073883141271e-03  -8.2608210256987086e-03  3.1253818108991048e-05  -5.6176917810414184e-04  -2.2348285435685239e-03  8.2475163374482966e-03  2.2213204724820350e-03  5.6168891183880363e-03  -5.2981648855589193e-04  -4.5871728559828996e-03  1.1854914989307047e-02  1.1338726427639294e-02  1.5190309438409936e-03  -8.6505469073537913e-03  -2.1506193259753894e-03  -2.7295949732354511e-03  2.9492096493203253e-03  -4.7146388368811203e-04  -7.7805781157132999e-03  2.6565918339765422e-03  2.4371753481695541e-03  7.8177251091114640e-03  -8.6311779322605493e-05  -5.3481790414870627e-03  -4.8917836897613171e-04  -2.6611426078512997e-03  -8.3728685657217267e-03  7.4374423218349865e-03  7.3637095290260387e-03  -2.9864535142023127e-03  -1.3357346645241779e-04  1.0370055685523611e-03  -2.2677899353148756e-03  8.4562184945258401e-03  -4.0648908366286820e-03  1.0680698429508147e-02  -5.1011882352248218e-03  -1.3783343319751290e-03  4.7341449517674938e-03  1.7286547804893828e-03  1.5445005279416765e-01  1.1303808081471563e-01  1.0960600741201115e-01  1.1376854709572973e-01  1.1280564821844193e-01  1.1199252914071181e-01  1.0891252501124069e-01  1.1388733582827422e-01  1.1037965553561148e-01  1.1263726097503327e-01  1.0434838649693325e-01  1.0431240614793388e-01  1.0487514274959298e-01  1.0140190226794971e-01  1.0063222195278373e-01  1.0436816678014851e-01  1.0150090708253323e-01  9.4166190904847763e-02  9.0799979421230040e-02  9.1805476441649006e-02  9.2693076958777182e-02  8.7485901107099862e-02  8.6565975015384683e-02  8.8085192891983771e-02  8.6073310513251206e-02  8.6789558511615850e-02  8.3977330368367908e-02  8.2253175387440480e-02  8.5851455636322238e-02  8.3157524052430876e-02  8.8083554831970001e-02  8.4487513383144530e-02  7.9263488997778700e-02  8.1061641730330120e-02  7.4115504935207063e-02  8.3843794585810996e-02  8.4197339903766058e-02  7.6300861868753303e-02  7.3913413696814922e-02  1.3648803147249117e-01  1.3423262509609118e-01  </DataArray> 
</PointData> 
</Piece>
</UnstructuredGrid>
</VTKFile>