<?xml version="1.0"?>
<VTKFile type="UnstructuredGrid"  version="0.1"  >
<UnstructuredGrid>
<Piece  NumberOfPoints="201" NumberOfCells="657">
<Points>
<DataArray  type="Float64"  NumberOfComponents="3"  format="ascii">-0.06861868140509861 0.3732384888975793 5367.725136777759  -0.4268300162692312 0.5967832543280648 -5367.965072865431  305.793764912183 0.7307299161022019 -5101.054615232614  579.2302856676846 0.8822115428084031 -4329.365329180377  792.4458599751928 0.09391997053385771 -3136.864536460858  926.5358771508445 -0.08337041175782504 -1645.285739677843  972.6087996456058 -0.1673169263872056 -0.1288273839842134  926.6829936755029 -0.1294520222970484 1645.30612853394  792.5864256655152 0.4263099114112058 3136.484533606922  579.6720293197865 0.5018256444986049 4329.475985173452  306.2731557840332 0.5292451877739711 5101.026414299227  387.8445905222894 -770.829708404955 -4659.228543473614  385.2560896780786 598.9810456322832 4775.281612769483  928.6730484737652 -709.8132018261183 -788.9293352033558  674.8941343501148 -758.6563481358389 3562.967947117896  847.6142501160505 712.5997034766252 2240.982380886604  843.9813926135199 712.184768149334 -2280.433645139579  432.6886121653624 691.5994842013313 -4596.825925447856  149.5931813421221 -685.6942370463672 5102.660015310159  670.1141448061506 -699.2619721893881 -3638.871660742348  470.2950211490378 -1367.758155815776 -3765.638627127888  695.038870859961 -1356.070597038144 -2587.178232921967  481.2648088132314 -1935.304989108078 -2488.356020768736  674.4753495083702 -1830.696080515428 -1223.246895455295  427.4873006464932 -2318.209744195264 -1040.560497921703  605.1702979362869 -2086.244805641049 262.8162558282926  320.8671317386233 -2477.621736509094 474.9430969097948  463.0239751825557 -2146.131387355391 1801.653582400953  167.8565989916487 -2399.703652219925 1917.912407050037  296.4562740358337 -1942.392859728286 3170.513188221775  -11.44977200830685 -2085.032556883012 3177.891564009265  702.8093157727633 -1692.187824523199 1517.818288578712  670.3732601758675 699.5846994840464 3638.937208733412  681.5229834482296 1363.946870176525 2676.340539876391  821.3077966485462 1318.923675357196 1208.898298563485  110.7433629768754 -1535.058855500308 4254.617460893503  403.3634826920972 -1350.917006117603 4007.519418945098  470.2073613297268 1288.756209439582 3882.625444195926  455.31127902481 1902.440267420347 2716.911874435099  930.3994241041486 -692.1704931583048 788.8170095669775  826.7468643339996 -1428.727515440678 91.28066939696902  849.1301318137623 -713.1976415598325 -2219.203758719625  149.2431157553085 686.6864996813047 -5102.997216501279  663.7528212206919 681.4359663987932 -3689.084518259049  676.3146919898501 1355.839571590151 -2730.49338033206  208.0132857411525 -2325.711106927181 -2160.383570694912  -145.738966802922 -2429.193313502874 1815.658325665177  201.2528107920418 -1392.126426970204 -4368.448994248843  815.6901457343165 1334.385449794794 -1249.515488984154  616.7434317143354 1920.505467684669 -1506.570108564435  439.0452751962263 1851.627631879865 -2923.955695745234  348.8431686777779 2321.665998705221 -1626.563589490822  153.947667086833 2163.601636505301 -2847.543935862286  45.41287063173523 2512.062357452478 -1476.92178847014  -158.1664629813125 2229.582030251411 -2628.179517788192  -261.5070857329456 2471.398781826289 -1113.318690321415  -457.6729016959046 2105.89083332768 -2011.698543634579  -50.36639995957625 2620.288329752537 98.43790409244707  -319.3325633470812 -2009.831640852402 2928.240815044648  -441.5461587249887 -2242.956061666835 1447.726082895974  -537.0346449012478 2200.406109503533 -543.1739569554995  -703.3319095147613 1721.20829749067 -1376.783832158456  -748.0264362314455 1722.204163058379 123.1415140629453  -870.0007136320692 1137.340711294016 -859.349156708735  -881.0526786569648 1080.092262933759 801.569442485778  -775.5294284371063 1069.676915206834 -2450.786721818691  -719.187557145637 1587.443739212952 1728.206612469668  -915.9915930477058 471.0419606839463 -1560.166253247684  -815.3967618496092 881.7196736530576 2358.374158925499  -783.8334984994633 299.4090942806199 -3146.402185092143  -876.9988894343288 -340.9735908287594 -2242.260167771322  -611.8500737205112 1317.314663688624 3208.821554501803  -137.2837546454076 -1056.628474057166 4824.464065624704  -597.8236770580388 -1729.265949243373 2384.311501349136  -706.21259502669 -455.8580302303226 -3595.472857300846  -763.4330363197132 -1079.356047629741 -2543.982990871048  -935.9648215615902 299.6205197845289 1345.836083454595  -333.4821128879028 1724.579719996521 -3565.158710575185  -673.3265030723394 560.9349659994783 3722.689914052957  214.6798134131107 1738.618595296075 3786.083786277249  -904.7418978433968 -893.1810655864006 -902.4991827294781  -574.3131951624679 180.9877493007209 -4335.553246591799  -449.1061919967902 992.1542031635661 4302.812824864548  -553.8126546812391 -1147.137910727972 -3745.114043678684  -581.582623260009 -1725.639475866623 -2508.234416139024  -491.877106104796 1942.738322237557 2406.868756471311  -253.6358109959862 -2535.162418043073 343.9965606952845  -472.0486524703371 166.6524248439688 4693.703452578598  -693.4546927912002 -242.1062906699919 3752.600563265548  -337.2406550438301 -1712.879210079595 -3577.7251907258  -339.956915512316 -2205.426553827711 -2213.826185218559  -289.6443816319933 -1073.019102776399 -4608.383255557334  506.9596801257551 2265.308785166038 -150.6860830913084  -676.144096612294 -1867.964126957326 945.7502205808606  -807.1513249651905 -1260.931602231448 1653.40344289822  179.7226961835895 2260.096725662896 2482.210403142432  -64.75427035756977 2026.505115093781 3316.329280800648  -22.26438943875426 1513.077935676399 4328.064137732904  -268.5652108893708 636.0043007988678 4986.794972119892  -448.3214450994528 -1397.226270797571 3796.424179769916  235.1587037057861 1699.235121743504 -3826.540099156754  -558.5677114933486 -2099.303604121892 -1165.543632533265  -73.98819693722673 1292.590035718151 -4610.302490050694  -163.2472421477683 551.2055756149058 -5163.806803652329  -111.9573290641188 2441.363370641254 1815.325332169859  -209.5338423146516 -390.2118190338693 5179.05893265991  -72.58373650832614 -2125.746817652079 -3044.708162088229  -451.5355876611769 -630.5871723974184 4579.529773797165  -693.3189670387604 -1032.381234336549 3147.430560843132  -856.6023845354293 -500.2772854666163 2359.347365963054  -934.5839952741708 -654.9702178815794 746.8268403950667  -968.3267949766877 -85.4289952301681 -462.1596399332565  -381.4000574053208 1102.583800685534 -4378.912045265706  -576.4741822586002 1230.588464241938 -3526.940200724687  -85.68416453024663 -2460.671822001455 -1750.042115859419  -34.07605636177647 1908.171480602328 -3605.498630572333  399.6709259720653 2304.200949914561 1395.207170699858  843.9941028737803 -681.4078033707198 2321.862707307578  49.38849938584848 -718.8792408871152 -5139.80920140368  159.1552951176558 -2558.502112851382 -823.3957285998554  -303.5206125348417 1648.792818206946 3783.812754103627  932.4111005957349 664.7516712113478 -805.8206138405147  634.6389051405131 1904.441351671271 1372.695207488361  745.0643637034068 1732.566342682532 -60.86777425017252  -753.5637115103141 -1564.276652068158 -1348.250482523811  -332.939611065182 2468.959760628406 415.7944038124937  -554.5427499616961 2130.975633912336 976.4580052313376  -54.22565880350243 -1569.288378419722 -4231.855418292845  -231.386118796867 -283.1850026594618 -5183.081620668527  -485.8755096084262 -458.4065228909759 -4565.611905019943  232.6278044784251 2550.546091071373 -273.1549148449582  27.40051927188343 -2606.233564588648 594.0550228429503  548.3365294664819 -1644.393250392824 2907.888701988205  934.0308159562799 673.6434456996126 715.0962963132127  433.2279200445981 -685.3590288332256 4599.125358883226  -831.2580899588634 -1408.078725945049 131.4802218246835  -178.57298615399 -1699.114892097282 3910.448321560674  483.0074029604722 1248.948347555778 -3890.368995862193  -837.8600196183169 208.9987612534726 2716.490813731389  224.3960746079874 -1927.232665205056 -3366.061434607065  243.7801811260497 1230.51149573321 4514.884723375278  143.5689128282682 2534.371939202342 1123.591837028712  -616.7947107300156 1637.260036246904 -2507.027971282866  821.6454984418798 -1269.645283992289 -1392.906041041116  -15.11910802606685 662.3341325262465 5180.986346984054  746.2102545635335 -1227.940633561505 2422.819203421755  -946.4616511072101 630.5212301795708 -121.0326935636354  -516.6139380149084 -2251.766411590557 51.4911321028021  -317.2986335350758 -2451.925622407083 -885.7498768814423  879.1701504845364 1167.164983224004 -37.07527739548369  -222.078712793609 1262.384823998553 4509.014107472934  275.9733015480236 1145.654223537686 -4557.066930201386  -334.2774599060593 188.0869726738817 -5033.421361644656  -366.3605334021873 2290.170822775137 1697.986651344992  834.9413382444284 -1180.780209416611 1465.245370411571  -68.6645611015819 -2604.491037847826 -536.8632368218176  -632.4885227087606 672.0221977543343 -3860.205530160218  -434.0493231292999 565.6441530335143 -4668.430817191044  -279.776750042921 2092.030945403857 2804.526458813561  -697.0245005018025 -1868.240841308042 -298.4753215274454  0.003751101650488003 0.06021254634171057 -0.1695041936378787  -311.5100593224763 -1039.312431439097 147.5250038484183  468.6141658681482 405.5323338692705 -24.47329046888646  -187.8439117934494 1089.305057170025 1173.115874713439  350.5155015829783 -773.28765572673 1066.843768502211  -228.3767298606102 112.1619189973585 -2372.711602615305  -481.5040427833167 206.2983397463951 1.898748897222768  92.78434764187617 1232.019544711722 -1019.025165298098  326.4936705907473 -607.1394275031566 -1595.359546623406  -253.755590044394 -114.6467727165839 2300.925079782789  244.4121254381395 914.1969691686882 1855.315368182555  -90.40033819517744 -1041.892228048986 -2016.336944035647  81.06093891716947 -1512.349643773772 9.768209116444405  194.2181275456071 398.136
[...]
<PointData  Vectors="Centrifugal"> 
<DataArray  type="Float64"  Name="Centrifugal"  NumberOfComponents="3" format="ascii">-1.6202487825891055e-09 8.6943283828167939e-09 0.0000000000000000e+00  -9.9845946664926203e-09 1.3963459659619400e-08 0.0000000000000000e+00  7.3959294665472508e-06 1.7091324856986952e-08 0.0000000000000000e+00  1.4011250798690824e-05 2.0624114445740355e-08 0.0000000000000000e+00  1.9172753410291540e-05 2.2047490731431755e-09 0.0000000000000000e+00  2.2421163704535267e-05 -1.9402641152357042e-09 0.0000000000000000e+00  2.3537428479581292e-05 -3.9033659100742660e-09 0.0000000000000000e+00  2.2424595193397898e-05 -3.0369358433757255e-09 0.0000000000000000e+00  1.9176029868200738e-05 9.9387490237527989e-09 0.0000000000000000e+00  1.4021567281240567e-05 1.1700829486165479e-08 0.0000000000000000e+00  7.4071285642268046e-06 1.2343112206950489e-08 0.0000000000000000e+00  9.3800960902019659e-06 -1.8622732906066957e-05 0.0000000000000000e+00  9.3175148298194185e-06 1.4470802891644805e-05 0.0000000000000000e+00  2.2471741805511185e-05 -1.7129219252654164e-05 0.0000000000000000e+00  1.6325692123700336e-05 -1.8320670532308057e-05 0.0000000000000000e+00  2.0507856417137692e-05 1.7200773085161044e-05 0.0000000000000000e+00  2.0420058094779392e-05 1.7191095076416699e-05 0.0000000000000000e+00  1.0464960105330561e-05 1.6707307097351381e-05 0.0000000000000000e+00  3.6176234524050743e-06 -1.6569365889154569e-05 0.0000000000000000e+00  1.6210403277663571e-05 -1.6886176490794531e-05 0.0000000000000000e+00  1.1373577597387927e-05 -3.3032931482661218e-05 0.0000000000000000e+00  1.6811744077220291e-05 -3.2738161569277221e-05 0.0000000000000000e+00  1.1637149028057904e-05 -4.6724822006636236e-05 0.0000000000000000e+00  1.6311902531858717e-05 -4.4187520956382080e-05 0.0000000000000000e+00  1.0335151474107400e-05 -5.5958346433963671e-05 0.0000000000000000e+00  1.4633699071465121e-05 -5.0354241110414863e-05 0.0000000000000000e+00  7.7565278366422855e-06 -5.9805745515366408e-05 0.0000000000000000e+00  1.1194906468399316e-05 -5.1809015454699469e-05 0.0000000000000000e+00  4.0575617375059975e-06 -5.7934690877516828e-05 0.0000000000000000e+00  7.1675748329695418e-06 -4.6905855392214809e-05 0.0000000000000000e+00  -2.7688948472581795e-07 -5.0351579448156530e-05 0.0000000000000000e+00  1.6998197344929585e-05 -4.0845278412805383e-05 0.0000000000000000e+00  1.6216443104479739e-05 1.6893701305573648e-05 0.0000000000000000e+00  1.6484323110629124e-05 3.2929174215201086e-05 0.0000000000000000e+00  1.9868621289900938e-05 3.1832486403776817e-05 0.0000000000000000e+00  2.6776107961469604e-06 -3.7081397548768630e-05 0.0000000000000000e+00  9.7544871989157645e-06 -3.2629335484866743e-05 0.0000000000000000e+00  1.1371463976768203e-05 3.1125726556913785e-05 0.0000000000000000e+00  1.1009431760803079e-05 4.5933718422746242e-05 0.0000000000000000e+00  2.2513559106802437e-05 -1.6703748191265097e-05 0.0000000000000000e+00  2.0000051836449509e-05 -3.4480232734066646e-05 0.0000000000000000e+00  2.0544848614248627e-05 -1.7215237312818119e-05 0.0000000000000000e+00  3.6094543715902389e-06 1.6592540416680525e-05 0.0000000000000000e+00  1.6056266356430205e-05 1.6455967647672467e-05 0.0000000000000000e+00  1.6358353566759127e-05 3.2734085339382217e-05 0.0000000000000000e+00  5.0286169528887672e-06 -5.6150173313943447e-05 0.0000000000000000e+00  -3.5229910991099097e-06 -5.8645869190289071e-05 0.0000000000000000e+00  4.8665901500623816e-06 -3.3630026015150674e-05 0.0000000000000000e+00  1.9732733449809164e-05 3.2205886319501747e-05 0.0000000000000000e+00  1.4914399895159065e-05 4.6358276306709648e-05 0.0000000000000000e+00  1.0616343770919567e-05 4.4709590153123671e-05 0.0000000000000000e+00  8.4334105027924643e-06 5.6046845341282412e-05 0.0000000000000000e+00  3.7218915033915961e-06 5.2244050698752444e-05 0.0000000000000000e+00  1.0976390818187999e-06 6.0644379945135572e-05 0.0000000000000000e+00  -3.8235961759084017e-06 5.3834529410010717e-05 0.0000000000000000e+00  -6.3213738735638255e-06 5.9659281561003448e-05 0.0000000000000000e+00  -1.1065815028429783e-05 5.0839601647035990e-05 0.0000000000000000e+00  -1.2174422800902912e-06 6.3251174277435671e-05 0.0000000000000000e+00  -7.7207816092422035e-06 -4.8531172425367129e-05 0.0000000000000000e+00  -1.0675227679453523e-05 -5.4144191559400383e-05 0.0000000000000000e+00  -1.2984885209321188e-05 5.3111781973440868e-05 0.0000000000000000e+00  -1.7010651975904218e-05 4.1545028337002249e-05 0.0000000000000000e+00  -1.8092553940445247e-05 4.1565131009738396e-05 0.0000000000000000e+00  -2.1048862973136380e-05 2.7448475087607400e-05 0.0000000000000000e+00  -2.1316977009271561e-05 2.6066406620025341e-05 0.0000000000000000e+00  -1.8761058346876408e-05 2.5822225000918777e-05 0.0000000000000000e+00  -1.7395173574659994e-05 3.8317672398053753e-05 0.0000000000000000e+00  -2.2165222268772447e-05 1.1368394182372014e-05 0.0000000000000000e+00  -1.9727233754406811e-05 2.1283937435638073e-05 0.0000000000000000e+00  -1.8963815119077559e-05 7.2285400944943236e-06 0.0000000000000000e+00  -2.1220470586809988e-05 -8.2301729037280909e-06 0.0000000000000000e+00  -1.4798461268061842e-05 3.1808407233207399e-05 0.0000000000000000e+00  -3.3198885584691478e-06 -2.5529816470582348e-05 0.0000000000000000e+00  -1.4457710411091772e-05 -4.1747902176466717e-05 0.0000000000000000e+00  -1.7084352622563095e-05 -1.1008016714120944e-05 0.0000000000000000e+00  -1.8468241484975100e-05 -2.6056651242143128e-05 0.0000000000000000e+00  -2.2649413613406186e-05 7.2306660598322462e-06 0.0000000000000000e+00  -8.0634906539737938e-06 4.1649515863835007e-05 0.0000000000000000e+00  -1.6288101380994796e-05 1.3545764037921926e-05 0.0000000000000000e+00  5.1907680001447540e-06 4.1991708580171851e-05 0.0000000000000000e+00  -2.1891406006699155e-05 -2.1554858607620532e-05 0.0000000000000000e+00  -1.3891742443617070e-05 4.3713715902588429e-06 0.0000000000000000e+00  -1.0861860611205826e-05 2.3965065417838683e-05 0.0000000000000000e+00  -1.3394331447861755e-05 -2.7704192038599914e-05 0.0000000000000000e+00  -1.4064587671499357e-05 -4.1661383153118878e-05 0.0000000000000000e+00  -1.1893824117362930e-05 4.6903190074178281e-05 0.0000000000000000e+00  -6.1310179193842232e-06 -6.1195102090501688e-05 0.0000000000000000e+00  -1.1417456899303532e-05 4.0257120001572743e-06 0.0000000000000000e+00  -1.6775912896552221e-05 -5.8473525224941409e-06 0.0000000000000000e+00  -8.1543718146253126e-06 -4.1367424157295264e-05 0.0000000000000000e+00  -8.2187539052185912e-06 -5.3245567146276980e-05 0.0000000000000000e+00  -7.0042598945851520e-06 -2.5923437198824113e-05 0.0000000000000000e+00  1.2257103844059839e-05 5.4678267809036863e-05 0.0000000000000000e+00  -1.6352106344177867e-05 -4.5085801975156795e-05 0.0000000000000000e+00  -1.9526123649900759e-05 -3.0434551397248394e-05 0.0000000000000000e+00  4.3447645179299162e-06 5.4569478619970424e-05 0.0000000000000000e+00  -1.5655355852263536e-06 4.8938828381940786e-05 0.0000000000000000e+00  -5.3841861149052394e-07 3.6550817956012181e-05 0.0000000000000000e+00  -6.4951441760891401e-06 1.5366263009674967e-05 0.0000000000000000e+00  -1.0842142066431700e-05 -3.3745263479061149e-05 0.0000000000000000e+00  5.6861229746186383e-06 4.1040957751392531e-05 0.0000000000000000e+00  -1.3506361028602847e-05 -5.0672410044688618e-05 0.0000000000000000e+00  -1.7889145616501259e-06 3.1228069342242506e-05 0.0000000000000000e+00  -3.9476029066529026e-06 1.3319143418021092e-05 0.0000000000000000e+00  -2.7063254129939738e-06 5.8939662167523686e-05 0.0000000000000000e+00  -5.0674304529758090e-06 -9.4289063946187234e-06 0.0000000000000000e+00  -1.7546515120996250e-06 -5.1332550322591631e-05 0.0000000000000000e+00  -1.0921047835533719e-05 -1.5234379395614650e-05 0.0000000000000000e+00  -1.6771202232398968e-05 -2.4927399127026534e-05 0.0000000000000000e+00  -2.0726319941414834e-05 -1.2076131150016129e-05 0.0000000000000000e+00  -2.2615366576448744e-05 -1.5805748060918411e-05 0.0000000000000000e+00  -2.3433881360789250e-05 -2.0613746931804793e-06 0.0000000000000000e+00  -9.2234997353684088e-06 2.6634170204117943e-05 0.0000000000000000e+00  -1.3942636804452434e-05 2.9717407048434662e-05 0.0000000000000000e+00  -2.0711232077826169e-06 -5.9405214858084433e-05 0.0000000000000000e+00  -8.2383114233327575e-07 4.6085266480585296e-05 0.0000000000000000e+00  9.6623632867688722e-06 5.5623039944629174e-05 0.0000000000000000e+00  2.0420114527010574e-05 -1.6448144908639866e-05 0.0000000000000000e+00  1.1945592102680965e-06 -1.7371779813301359e-05 0.0000000000000000e+00  3.8471279403281712e-06 -6.1760356557617529e-05 0.0000000000000000e+00  -7.3392396128958679e-06 3.9821495542080037e-05 0.0000000000000000e+00  2.2562390193132787e-05 1.6042388197181807e-05 0.0000000000000000e+00  1.5347460131955304e-05 4.5969374757956987e-05 0.0000000000000000e+00  1.8020777371518333e-05 4.1815282274636769e-05 0.0000000000000000e+00  -1.8227310393477831e-05 -3.7755732670344628e-05 0.0000000000000000e+00  -8.0483805813608713e-06 5.9596893254651219e-05 0.0000000000000000e+00  -1.3408559633784044e-05 5.1436872968263764e-05 0.0000000000000000e+00  -1.3110588008773801e-06 -3.7908278099237375e-05 0.0000000000000000e+00  -5.5956687422764317e-06 -6.8432548134499469e-06 0.0000000000000000e+00  -1.1751617564925313e-05 -1.1074398248453217e-05 0.0000000000000000e+00  5.6230941907377876e-06 6.1566808969432810e-05 0.0000000000000000e+00  6.6221959805568324e-07 -6.2912368379323678e-05 0.0000000000000000e+00  1.3260585228567118e-05 -3.9704376109137627e-05 0.0000000000000000e+00  2.2601608165667047e-05 1.6256662188637950e-05 0.0000000000000000e+00  1.0477754011864027e-05 -1.6557560797612576e-05 0.0000000000000000e+00  -2.0109478990614242e-05 -3.3981334273172482e-05 0.0000000000000000e+00  -4.3178414719822878e-06 -4.1039983000916619e-05 0.0000000000000000e+00  1.1681379559073813e-05 3.0164708288700292e-05 0.0000000000000000e+00  -2.0272665828634603e-05 5.0450236673899328e-06 0.0000000000000000e+00  5.4254769859455673e-06 -4.6542288861251781e-05 0.0000000000000000e+00  5.8949607146998371e-06 2.9726288195808607e-05 0.0000000000000000e+00  3.4702662509391539e-06 6.1180134051613946e-05 0.0000000000000000e+00  -1.4916763158906808e-05 3.9527538856317893e-05 0.0000000000000000e+00  1.9877187498208118e-05 -3.0643534373057791e-05 0.0000000000000000e+00  -3.6570399270694691e-07 1.6003727183235027e-05 0.0000000000000000e+00  1.8050626547277637e-05 -2.9643228394468940e-05 0.0000000000000000e+00  -2.2902866307562546e-05 1.5215600908926845e-05 0.0000000000000000e+00  -1.2490686280684195e-05 -5.4350718848759814e-05 0.0000000000000000e+00  -7.6702091598589657e-06 -5.9186725400229697e-05 0.0000000000000000e+00  2.1270643333965044e-05 2.8167196098565056e-05 0.0000000000000000e+00  -5.3702649345239400e-06 3.0496314030521182e-05 0.0000000000000000e+00  6.6738180764478241e-06 2.7676999145714444e-05 0.0000000000000000e+00  -8.0843067914996406e-06 4.5438906857390547e-06 0.0000000000000000e+00  -8.8571379657535136e-06 5.5286733056131644e-05 0.0000000000000000e+00  2.0199410411817233e-05 -2.8498783957205370e-05 0.0000000000000000e+00  -1.6597026434526812e-06 -6.2869957363190118e-05 0.0000000000000000e+00  -1.5299145372000374e-05 1.6229748048157566e-05 0.0000000000000000e+00  -1.0497677228041769e-05 1.3665032666255591e-05 0.0000000000000000e+00  -6.7642539080724839e-06 5.0514292684485824e-05 0.0000000000000000e+00  -1.6857270202113500e-05 -4.5090449624096280e-05 0.0000000000000000e+00  9.4004890426638322e-11 1.4080202345069430e-09 0.0000000000000000e+00  -7.5374379439293977e-06 -2.5077576438762744e-05 0.0000000000000000e+00  1.1340825980690298e-05 9.7848542486410084e-06 0.0000000000000000e+00  -4.5449986795276783e-06 2.6286353601117925e-05 0.0000000000000000e+00  8.4817209015212251e-06 -1.8659519921546251e-05 0.0000000000000000e+00  -5.5262067422436759e-06 2.7073069733022871e-06 0.0000000000000000e+00  -1.1653163882283702e-05 4.9777141632864678e-06 0.0000000000000000e+00  2.2448696055799542e-06 2.9730382852519339e-05 0.0000000000000000e+00  7.9005958378311488e-06 -1.4651065567502500e-05 0.0000000000000000e+00  -6.1406280014898709e-06 -2.7671548867271672e-06 0.0000000000000000e+00  5.9136262065086518e-06 2.2062828465974036e-05 0.0000000000000000e+00  -2.1871366770563134e-06 -2.5145716449127188e-05 0.0000000000000000e+00  1.9610203049341252e-06 -3.6494086516662825e-05 0.0000000000000000e+00  4.6994888852174603e-06 9.6100531997322996e-06 0.0000000000000000e+00  -1.8610177622117967e-06 -2.8270465589282730e-05 0.0000000000000000e+00  4.1234331278137731e-06 -3.4241558534480999e-06 0.0000000000000000e+00  -7.9902007690133424e-06 2.7775349080220307e-05 0.0000000000000000e+00  -1.1714183676092926e-05 -1.3261409934802302e-05 0.0000000000000000e+00  1.1922464548856140e-05 1.6638693582723601e-06 0.0000000000000000e+00  -1.5992665657685924e-06 1.7040912508962492e-05 0.0000000000000000e+00  2.4761804161526173e-06 3.8976357300870437e-05 0.0000000000000000e+00  1.0144841751662052e-05 2.3025755013767761e-05 0.0000000000000000e+00  1.0174321534090775e-05 3.2417848478155246e-05 0.0000000000000000e+00  -1.1622738070814394e-05 1.4638403401257449e-05 0.0000000000000000e+00  1.4251253929699826e-05 -1.2205143563036021e-05 0.0000000000000000e+00  -2.8749960467355472e-06 2.5420861917398433e-05 0.0000000000000000e+00  -1.3718587924222547e-05 -1.3486263421988982e-05 0.0000000000000000e+00  1.3407340013604322e-05 2.3053400136207862e-06 0.0000000000000000e+00  9.9985818607060605e-06 -3.1908721441765465e-05 0.0000000000000000e+00  -1.2778842451122518e-05 1.1740012052095442e-05 0.0000000000000000e+00  2.9646104676091331e-06 -1.2369754720817956e-05 0.0000000000000000e+00  -4.6578530417412581e-06 -4.0004310091986213e-05 0.0000000000000000e+00  -4.5199772749383290e-06 -4.2094841632813932e-05 0.0000000000000000e+00  5.3678512631456107e-06 -3.7038544330371989e-05 0.0000000000000000e+00  -1.1667660684184499e-05 3.1748000499932420e-05 0.0000000000000000e+00  4.5208603755998799e-06 -3.6085257871972308e-05 0.0000000000000000e+00  -3.2445749250625121e-06 4.2685714549328278e-05 0.0000000000000000e+00  -7.8005909769782288e-06 -1.5959042030144011e-05 0.0000000000000000e+00  1.3406835319770897e-05 2.0726577191741547e-05 0.0000000000000000e+00  1.6866138098956125e-06 1.9242366140482424e-05 0.0000000000000000e+00  5.0016260071933307e-06 1.0355833611522614e-05 0.0000000000000000e+00  </DataArray> 
</PointData> 
</Piece>
</UnstructuredGrid>
</VTKFile>