<?xml version="1.0"?>
<VTKFile type="UnstructuredGrid"  version="0.1"  >
<UnstructuredGrid>
<Piece  NumberOfPoints="201" NumberOfCells="657">
<Points>
<DataArray  type="Float64"  NumberOfComponents="3"  format="ascii">-0.06861868140509861 0.3732384888975793 5367.725136777759  -0.4268300162692312 0.5967832543280648 -5367.965072865431  305.793764912183 0.7307299161022019 -5101.054615232614  579.2302856676846 0.8822115428084031 -4329.365329180377  792.4458599751928 0.09391997053385771 -3136.864536460858  926.5358771508445 -0.08337041175782504 -1645.285739677843  972.6087996456058 -0.1673169263872056 -0.1288273839842134  926.6829936755029 -0.1294520222970484 1645.30612853394  792.5864256655152 0.4263099114112058 3136.484533606922  579.6720293197865 0.5018256444986049 4329.475985173452  306.2731557840332 0.5292451877739711 5101.026414299227  387.8445905222894 -770.829708404955 -4659.228543473614  385.2560896780786 598.9810456322832 4775.281612769483  928.6730484737652 -709.8132018261183 -788.9293352033558  674.8941343501148 -758.6563481358389 3562.967947117896  847.6142501160505 712.5997034766252 2240.982380886604  843.9813926135199 712.184768149334 -2280.433645139579  432.6886121653624 691.5994842013313 -4596.825925447856  149.5931813421221 -685.6942370463672 5102.660015310159  670.1141448061506 -699.2619721893881 -3638.871660742348  470.2950211490378 -1367.758155815776 -3765.638627127888  695.038870859961 -1356.070597038144 -2587.178232921967  481.2648088132314 -1935.304989108078 -2488.356020768736  674.4753495083702 -1830.696080515428 -1223.246895455295  427.4873006464932 -2318.209744195264 -1040.560497921703  605.1702979362869 -2086.244805641049 262.8162558282926  320.8671317386233 -2477.621736509094 474.9430969097948  463.0239751825557 -2146.131387355391 1801.653582400953  167.8565989916487 -2399.703652219925 1917.912407050037  296.4562740358337 -1942.392859728286 3170.513188221775  -11.44977200830685 -2085.032556883012 3177.891564009265  702.8093157727633 -1692.187824523199 1517.818288578712  670.3732601758675 699.5846994840464 3638.937208733412  681.5229834482296 1363.946870176525 2676.340539876391  821.3077966485462 1318.923675357196 1208.898298563485  110.7433629768754 -1535.058855500308 4254.617460893503  403.3634826920972 -1350.917006117603 4007.519418945098  470.2073613297268 1288.756209439582 3882.625444195926  455.31127902481 1902.440267420347 2716.911874435099  930.3994241041486 -692.1704931583048 788.8170095669775  826.7468643339996 -1428.727515440678 91.28066939696902  849.1301318137623 -713.1976415598325 -2219.203758719625  149.2431157553085 686.6864996813047 -5102.997216501279  663.7528212206919 681.4359663987932 -3689.084518259049  676.3146919898501 1355.839571590151 -2730.49338033206  208.0132857411525 -2325.711106927181 -2160.383570694912  -145.738966802922 -2429.193313502874 1815.658325665177  201.2528107920418 -1392.126426970204 -4368.448994248843  815.6901457343165 1334.385449794794 -1249.515488984154  616.7434317143354 1920.505467684669 -1506.570108564435  439.0452751962263 1851.627631879865 -2923.955695745234  348.8431686777779 2321.665998705221 -1626.563589490822  153.947667086833 2163.601636505301 -2847.543935862286  45.41287063173523 2512.062357452478 -1476.92178847014  -158.1664629813125 2229.582030251411 -2628.179517788192  -261.5070857329456 2471.398781826289 -1113.318690321415  -457.6729016959046 2105.89083332768 -2011.698543634579  -50.36639995957625 2620.288329752537 98.43790409244707  -319.3325633470812 -2009.831640852402 2928.240815044648  -441.5461587249887 -2242.956061666835 1447.726082895974  -537.0346449012478 2200.406109503533 -543.1739569554995  -703.3319095147613 1721.20829749067 -1376.783832158456  -748.0264362314455 1722.204163058379 123.1415140629453  -870.0007136320692 1137.340711294016 -859.349156708735  -881.0526786569648 1080.092262933759 801.569442485778  -775.5294284371063 1069.676915206834 -2450.786721818691  -719.187557145637 1587.443739212952 1728.206612469668  -915.9915930477058 471.0419606839463 -1560.166253247684  -815.3967618496092 881.7196736530576 2358.374158925499  -783.8334984994633 299.4090942806199 -3146.402185092143  -876.9988894343288 -340.9735908287594 -2242.260167771322  -611.8500737205112 1317.314663688624 3208.821554501803  -137.2837546454076 -1056.628474057166 4824.464065624704  -597.8236770580388 -1729.265949243373 2384.311501349136  -706.21259502669 -455.8580302303226 -3595.472857300846  -763.4330363197132 -1079.356047629741 -2543.982990871048  -935.9648215615902 299.6205197845289 1345.836083454595  -333.4821128879028 1724.579719996521 -3565.158710575185  -673.3265030723394 560.9349659994783 3722.689914052957  214.6798134131107 1738.618595296075 3786.083786277249  -904.7418978433968 -893.1810655864006 -902.4991827294781  -574.3131951624679 180.9877493007209 -4335.553246591799  -449.1061919967902 992.1542031635661 4302.812824864548  -553.8126546812391 -1147.137910727972 -3745.114043678684  -581.582623260009 -1725.639475866623 -2508.234416139024  -491.877106104796 1942.738322237557 2406.868756471311  -253.6358109959862 -2535.162418043073 343.9965606952845  -472.0486524703371 166.6524248439688 4693.703452578598  -693.4546927912002 -242.1062906699919 3752.600563265548  -337.2406550438301 -1712.879210079595 -3577.7251907258  -339.956915512316 -2205.426553827711 -2213.826185218559  -289.6443816319933 -1073.019102776399 -4608.383255557334  506.9596801257551 2265.308785166038 -150.6860830913084  -676.144096612294 -1867.964126957326 945.7502205808606  -807.1513249651905 -1260.931602231448 1653.40344289822  179.7226961835895 2260.096725662896 2482.210403142432  -64.75427035756977 2026.505115093781 3316.329280800648  -22.26438943875426 1513.077935676399 4328.064137732904  -268.5652108893708 636.0043007988678 4986.794972119892  -448.3214450994528 -1397.226270797571 3796.424179769916  235.1587037057861 1699.235121743504 -3826.540099156754  -558.5677114933486 -2099.303604121892 -1165.543632533265  -73.98819693722673 1292.590035718151 -4610.302490050694  -163.2472421477683 551.2055756149058 -5163.806803652329  -111.9573290641188 2441.363370641254 1815.325332169859  -209.5338423146516 -390.2118190338693 5179.05893265991  -72.58373650832614 -2125.746817652079 -3044.708162088229  -451.5355876611769 -630.5871723974184 4579.529773797165  -693.3189670387604 -1032.381234336549 3147.430560843132  -856.6023845354293 -500.2772854666163 2359.347365963054  -934.5839952741708 -654.9702178815794 746.8268403950667  -968.3267949766877 -85.4289952301681 -462.1596399332565  -381.4000574053208 1102.583800685534 -4378.912045265706  -576.4741822586002 1230.588464241938 -3526.940200724687  -85.68416453024663 -2460.671822001455 -1750.042115859419  -34.07605636177647 1908.171480602328 -3605.498630572333  399.6709259720653 2304.200949914561 1395.207170699858  843.9941028737803 -681.4078033707198 2321.862707307578  49.38849938584848 -718.8792408871152 -5139.80920140368  159.1552951176558 -2558.502112851382 -823.3957285998554  -303.5206125348417 1648.792818206946 3783.812754103627  932.4111005957349 664.7516712113478 -805.8206138405147  634.6389051405131 1904.441351671271 1372.695207488361  745.0643637034068 1732.566342682532 -60.86777425017252  -753.5637115103141 -1564.276652068158 -1348.250482523811  -332.939611065182 2468.959760628406 415.7944038124937  -554.5427499616961 2130.975633912336 976.4580052313376  -54.22565880350243 -1569.288378419722 -4231.855418292845  -231.386118796867 -283.1850026594618 -5183.081620668527  -485.8755096084262 -458.4065228909759 -4565.611905019943  232.6278044784251 2550.546091071373 -273.1549148449582  27.40051927188343 -2606.233564588648 594.0550228429503  548.3365294664819 -1644.393250392824 2907.888701988205  934.0308159562799 673.6434456996126 715.0962963132127  433.2279200445981 -685.3590288332256 4599.125358883226  -831.2580899588634 -1408.078725945049 131.4802218246835  -178.57298615399 -1699.114892097282 3910.448321560674  483.0074029604722 1248.948347555778 -3890.368995862193  -837.8600196183169 208.9987612534726 2716.490813731389  224.3960746079874 -1927.232665205056 -3366.061434607065  243.7801811260497 1230.51149573321 4514.884723375278  143.5689128282682 2534.371939202342 1123.591837028712  -616.7947107300156 1637.260036246904 -2507.027971282866  821.6454984418798 -1269.645283992289 -1392.906041041116  -15.11910802606685 662.3341325262465 5180.986346984054  746.2102545635335 -1227.940633561505 2422.819203421755  -946.4616511072101 630.5212301795708 -121.0326935636354  -516.6139380149084 -2251.766411590557 51.4911321028021  -317.2986335350758 -2451.925622407083 -885.7498768814423  879.1701504845364 1167.164983224004 -37.07527739548369  -222.078712793609 1262.384823998553 4509.014107472934  275.9733015480236 1145.654223537686 -4557.066930201386  -334.2774599060593 188.0869726738817 -5033.421361644656  -366.3605334021873 2290.170822775137 1697.986651344992  834.9413382444284 -1180.780209416611 1465.245370411571  -68.6645611015819 -2604.491037847826 -536.8632368218176  -632.4885227087606 672.0221977543343 -3860.205530160218  -434.0493231292999 565.6441530335143 -4668.430817191044  -279.776750042921 2092.030945403857 2804.526458813561  -697.0245005018025 -1868.240841308042 -298.4753215274454  0.003751101650488003 0.06021254634171057 -0.1695041936378787  -311.5100593224763 -1039.312431439097 147.5250038484183  468.6141658681482 405.5323338692705 -24.47329046888646  -187.8439117934494 1089.305057170025 1173.115874713439  350.5155015829783 -773.28765572673 1066.843768502211  -228.3767298606102 112.1619189973585 -2372.711602615305  -481.5040427833167 206.2983397463951 1.898748897222768  92.78434764187617 1232.019544711722 -1019.025165298098  326.4936705907473 -607.1394275031566 -1595.359546623406  -253.755590044394 -114.6467727165839 2300.925079782789  244.4121254381395 914.1969691686882 1855.315368182555  -90.40033819517744 -1041.892228048986 -2016.336944035647  81.06093891716947 -1512.349643773772 9.768209116444405  194.2181275456071 398.136
[...]
<PointData  Vectors="Velocity"> 
<DataArray  type="Float64"  Name="Velocity"  NumberOfComponents="3" format="ascii">-2.2457890343350931e-09 1.9086633235949282e-08 -5.9936326438319918e-06  -1.9402668901439186e-08 2.6940937578180037e-08 5.9829602598985394e-06  -1.5000518187951520e-07 3.3346760123064401e-08 5.8780066773295855e-06  -3.9903222792182990e-07 4.0854271090618159e-08 5.4409785238690018e-06  -7.7400400662368735e-07 3.8220533364610352e-09 4.3372029150617557e-06  -1.1471471169759253e-06 -4.3669943607686543e-09 2.4520546639459255e-06  -1.2823561352223000e-06 -8.2185986711695215e-09 -5.7535449300608282e-09  -1.1398850600849717e-06 -5.3789514499014571e-09 -2.4509305659966837e-06  -7.6693611315677356e-07 2.1328507022204450e-08 -4.3543136559877650e-06  -3.7796884017722546e-07 2.5016860494483031e-08 -5.4364797299727606e-06  -1.2734362688866303e-07 2.6212732118939141e-08 -5.8792785702460035e-06  -1.7201346903905542e-07 -8.1220579417506062e-07 5.5437138651385845e-06  -1.7214735243082337e-07 6.4159267314769547e-07 -5.6702700047609903e-06  -1.0838368101354287e-06 -1.8709195109769242e-06 1.1903735483039366e-06  -4.8736020763281159e-07 -1.2603896033845969e-06 -4.7128635827296075e-06  -8.4739086167548180e-07 1.6287170169719649e-06 -3.2333314335570601e-06  -8.4942923642504170e-07 1.6082148440034393e-06 3.2733970719809399e-06  -2.0943009913800518e-07 8.0262261319684212e-07 5.5192479882965247e-06  -4.8024560103020892e-08 -5.2278316365142521e-07 -5.8040899865678610e-06  -5.0354364557020242e-07 -1.1726446062774855e-06 4.7900821399094193e-06  -1.7395475277923450e-07 -2.0894067963712045e-06 4.7125009167067225e-06  -4.2957083295909731e-07 -2.7954208848248825e-06 3.5261816099949917e-06  -7.8362429230619124e-08 -3.8259391713386734e-06 3.2224663498026055e-06  -2.7518802813467407e-07 -4.2958428215359506e-06 1.6835497516510168e-06  2.5285126813273485e-08 -5.2252700592299759e-06 1.3567041559028168e-06  -1.2590170902117724e-07 -4.9800841799190963e-06 -3.6190127757104484e-07  7.2243905425163100e-08 -5.6183913871066767e-06 -6.1595137521936779e-07  -7.4800252890815315e-09 -4.5826247975026887e-06 -2.3532845832522609e-06  4.6127721748501782e-08 -4.8765474221313749e-06 -2.4046530750631948e-06  3.7161976339490022e-10 -3.2662640970001424e-06 -3.9217203953851218e-06  3.6040518781599738e-09 -3.4371807662777974e-06 -3.8687036934636418e-06  -3.4753047690855027e-07 -3.9168636337977511e-06 -2.1093214505507869e-06  -4.9051957081467751e-07 1.1887369814814668e-06 -4.7869364048486950e-06  -3.9250540012323890e-07 2.7616189499577571e-06 -3.6255342598133207e-06  -6.6152996069319819e-07 3.2328141901016099e-06 -1.7488603074306786e-06  -6.3414034455207069e-09 -1.8839810572669144e-06 -5.0266862517208944e-06  -1.2468484521601601e-07 -1.8820397964411620e-06 -4.9250840327214851e-06  -1.7428969727241725e-07 1.9233928947086108e-06 -4.8372428952266850e-06  -6.5337720902811697e-08 3.6241963508267893e-06 -3.4897480167731055e-06  -1.0883414368415912e-06 -1.8080337697650938e-06 -1.1909951919909889e-06  -6.5732111517606817e-07 -3.6404110114085601e-06 -1.4058545285979568e-07  -8.6718785759131564e-07 -1.6282792943966655e-06 3.1915113546049477e-06  -6.5084193973538232e-08 5.7002607942622983e-07 5.7883609579749799e-06  -4.8409978340352873e-07 1.1274833097650454e-06 4.8397679413172260e-06  -3.8984703294793754e-07 2.7080269332831647e-06 3.6787973702612061e-06  3.6538993517470832e-08 -4.6194900137074611e-06 2.6983569549643311e-06  -3.5755653407677862e-08 -4.9812859683612434e-06 -2.2756839844114052e-06  -4.5958081804756417e-08 -1.6302631006019383e-06 5.1627199345630247e-06  -6.5765616158530863e-07 3.2575753183935129e-06 1.7977474408123242e-06  -1.7749132448325431e-07 4.3313978567962597e-06 2.0404143563315075e-06  -7.5982413714231933e-08 3.3696724271294496e-06 3.7114192155056974e-06  4.3807886960970109e-08 4.9395202989185306e-06 2.0894352731225625e-06  1.0610317420117774e-08 3.8503155146275391e-06 3.5025386408453443e-06  1.9227860902846430e-08 5.2741626239658944e-06 1.8513789328669012e-06  -2.7714181753547238e-08 4.1261782506059827e-06 3.2469800998788970e-06  -7.0768247151871523e-08 5.3872681359680581e-06 1.4200689738101662e-06  2.3942066788099278e-08 4.3797699529104616e-06 2.6090780528796134e-06  -1.6964924256321129e-08 5.8440575989693100e-06 -1.3188949389299096e-07  6.2603679843276151e-09 -3.5665542845989375e-06 -3.6605093394834153e-06  -1.5574961735214629e-08 -4.9187739294257535e-06 -1.8905909559570124e-06  4.1257276139192890e-08 5.1304990966397051e-06 7.2396942957112068e-07  3.3708549943038971e-07 4.0264989828363767e-06 1.9196943114378976e-06  4.1227480904185767e-07 4.2566464025535153e-06 -1.7472799222592679e-07  8.3332694728862251e-07 2.8728610274231203e-06 1.2602889356124927e-06  8.8571498516067536e-07 2.7537149502699335e-06 -1.1872507337003348e-06  6.1781746215243021e-07 2.3116008518692699e-06 3.4234105635709515e-06  4.0489638534973492e-07 3.6361881045156665e-06 -2.4100603195732577e-06  1.0888608132385509e-06 1.1718046947932712e-06 2.3118398380395077e-06  7.4992681164231627e-07 1.9610237249243302e-06 -3.3549747734971490e-06  7.3274180761732643e-07 6.0408185453715674e-07 4.3499547152059036e-06  9.7280937283377089e-07 -7.9481480151696327e-07 3.2593429440672733e-06  3.1475611787661016e-07 2.3745703998281881e-06 -4.2161852668863311e-06  4.0883245751177708e-08 -9.7580209173321999e-07 -5.5775967829318567e-06  2.2054044214656765e-07 -3.5598395092735737e-06 -3.1790954762075043e-06  5.7174456819484718e-07 -7.8198943989209129e-07 4.7921976045643262e-06  5.9720789767856670e-07 -2.2879363203933911e-06 3.5341170001328660e-06  1.1634345452495524e-06 7.7695894256457696e-07 -2.0227001977485979e-06  4.1455519431297900e-08 2.6962450184724925e-06 4.3906508170170575e-06  5.0535042072276273e-07 9.4143191146721366e-07 -4.8869647560899765e-06  -1.9674679879541274e-08 2.5360128129193859e-06 -4.5750476443221959e-06  9.8311149080194149e-07 -2.3192534289195674e-06 1.3374482261280804e-06  3.6283056898709405e-07 2.5856384597314576e-07 5.4277397615935815e-06  2.0734170473519889e-07 1.3187035127885557e-06 -5.2614307456631109e-06  2.6101122254750073e-07 -1.7817369932222041e-06 4.7705630292347833e-06  1.9424605560200968e-07 -3.4926652292491869e-06 3.3124152499070173e-06  8.3916644723891604e-08 3.9041967678323823e-06 -3.1212889611335883e-06  -7.3544659800866100e-08 -5.7246470654450177e-06 -4.4018363887336623e-07  2.5969581915980637e-07 2.0453064570734509e-07 -5.6706507737229543e-06  5.7260525087490427e-07 -3.5784030209531118e-07 -4.9688055380974979e-06  4.1969966706720021e-08 -2.6500535670115057e-06 4.4092819217731770e-06  -3.2744297877384372e-08 -4.4123472276664036e-06 2.8036728530486845e-06  7.9520735720323376e-08 -1.1300616119896866e-06 5.4241633050756882e-06  -4.0314830905974049e-09 5.2868730500012659e-06 1.9966307007148253e-07  2.6694456914030702e-07 -4.4561345682490629e-06 -1.3104198369143254e-06  6.4826553739715070e-07 -2.9913560215509542e-06 -2.3677445229094361e-06  2.8188339045484613e-08 4.2895055442246467e-06 -3.0853152712207054e-06  -3.6423206776772558e-09 3.3041200798465907e-06 -4.0294380719548582e-06  6.9830808882984298e-09 1.8339063233590580e-06 -5.0768028585559520e-06  1.1001223947933139e-07 6.2253438999379971e-07 -5.7593807096229026e-06  1.6418812820465436e-07 -2.0971849535428744e-06 -4.7303754385656508e-06  -3.2756123068247352e-08 2.4523828032976038e-06 4.6250776180309039e-06  9.1017201970242904e-08 -4.8388418338629290e-06 1.5566550040429531e-06  3.6196109580640001e-09 1.3646338651644666e-06 5.3356448562871114e-06  3.9799751205578677e-08 4.4279089559157753e-07 5.8478520039199583e-06  -3.0488851714652595e-08 5.0072816773333598e-06 -2.2772710614109623e-06  8.2168897570172707e-08 -3.1571141101041744e-07 -5.8974972360861200e-06  -1.4136340488780745e-08 -3.6340128263460299e-06 3.7116660262415833e-06  2.3342212842439990e-07 -6.7527238138939883e-07 -5.5391646182404553e-06  4.8985623200038372e-07 -1.9125700645875367e-06 -4.2220060478399289e-06  9.1412766726623786e-07 -1.1197559475090656e-06 -3.4041513100874982e-06  1.1251005483315352e-06 -1.7263509359906047e-06 -1.1228970041510654e-06  1.2812670125715479e-06 -2.3667593442440882e-07 7.0422873062817520e-07  1.2665162843344549e-07 1.3656285130149712e-06 5.2719496687545484e-06  2.8449203176525232e-07 2.0372809087381212e-06 4.5501465006570040e-06  -2.9441267588275361e-08 -5.0812799107988649e-06 2.1813973214226791e-06  -2.5373034647776666e-09 2.8725631675341383e-06 4.3298157689488862e-06  4.0158660150721069e-08 5.0288951933496222e-06 -1.8118215675266931e-06  -8.3490380816981622e-07 -1.5409979696183079e-06 -3.3413649311757964e-06  -2.7048433076306383e-08 -5.1801021542253175e-07 5.7941679086976616e-06  4.9470826167767750e-08 -5.6691651534510662e-06 1.0396944375879406e-06  4.9799459401219885e-08 2.4461148069280753e-06 -4.6223504313938333e-06  -1.0995574493234570e-06 1.7177395904917000e-06 1.2131325669807810e-06  -2.0017962879609451e-07 4.3609761088320121e-06 -1.8740516351909041e-06  -4.0295487608669853e-07 4.2786875834246072e-06 8.9377688420184856e-08  4.6315790376870944e-07 -3.7413765605666188e-06 1.8976271830366948e-06  -7.3982031588898029e-08 5.5852174058327992e-06 -5.4331591069622409e-07  6.2775540003814538e-08 4.9134533591279693e-06 -1.3125960666896102e-06  9.3598228374168133e-10 -1.9247918294402349e-06 4.9865562663897006e-06  7.6620064335560097e-08 -2.0032712596912094e-07 5.8978030060152438e-06  2.5166961422418617e-07 -5.0607747415338119e-07 5.5509341424272375e-06  7.3658443322739117e-08 5.7381021435976419e-06 3.4286122405298126e-07  1.4900890010719680e-08 -5.7859460078465862e-06 -7.5084282593102388e-07  -1.8301752344516973e-07 -3.0684732226123582e-06 -3.7829385911799561e-06  -1.1028724253092770e-06 1.7586852906452240e-06 -1.0813737968572659e-06  -1.9523154914730206e-07 -7.3704945763747503e-07 -5.5359182798297007e-06  6.7798301582922166e-07 -3.6208218401344467e-06 -1.9405075075703256e-07  2.2422647977719151e-08 -2.3405124514630655e-06 -4.6827625529230253e-06  -1.9989061957340848e-07 1.8401550980096580e-06 4.8594779589516039e-06  8.8459980637664676e-07 4.6614088433776725e-07 -3.8673229589474071e-06  -7.7329875083004942e-09 -3.0943234798789338e-06 4.1094816203672701e-06  -5.5435606653752887e-08 1.4153084997872619e-06 -5.3190063503445948e-06  5.0711108734935771e-08 5.4847196049225702e-06 -1.4186282830227975e-06  2.4254071111080068e-07 3.3217142680470319e-06 3.3345081953776655e-06  -6.8477178158763875e-07 -3.0893430917971918e-06 1.9993690693713488e-06  9.3371060569133946e-09 5.7194050985494452e-07 -5.8463241408490177e-06  -5.2711484147015501e-07 -2.6255864853896418e-06 -3.3606160316269622e-06  1.1440525387558723e-06 1.6702423075995070e-06 1.8334095093223878e-07  1.3660469005924248e-08 -5.2942714447887813e-06 -6.9141808477574080e-08  -7.4629155165365825e-08 -5.4882004252892164e-06 1.1310517331111481e-06  -8.3830647454952095e-07 3.0092916816751767e-06 5.3638107545948824e-08  5.4982291142547670e-08 1.4496204802533342e-06 -5.2971227201939162e-06  -8.4799127542494217e-08 1.2792183908851426e-06 5.3644339734414924e-06  1.3332175631705989e-07 2.0776257242474312e-07 5.8340932325624008e-06  -3.2181142870585970e-08 4.8605802829146397e-06 -2.1861750101524508e-06  -7.2891042154189348e-07 -2.8700258343701949e-06 -2.1262767166915547e-06  -2.5304061463594088e-08 -5.8022169465281085e-06 6.7597021642647688e-07  4.1303328823444205e-07 1.0474589089167687e-06 4.9832968034374016e-06  1.9892076337281144e-07 6.2806895876368778e-07 5.5894228234390372e-06  -3.3356513595354086e-09 3.8129852064096947e-06 -3.4942043360501977e-06  2.8589048367568134e-07 -4.5744027918599996e-06 4.0961791847838293e-07  -1.9173013918612022e-10 2.7660162405142103e-09 -7.7737879827083163e-09  3.4122802522881137e-07 -2.9201497885109722e-06 -2.1726578296792465e-07  -6.3063769224674629e-07 1.1532063530897947e-06 2.9995116885421760e-08  1.9665270282744204e-07 2.9155867987377854e-06 -1.7360417525450350e-06  -4.1230731037660287e-07 -2.1230791256234845e-06 -1.6002471865678202e-06  2.6755420583872762e-07 2.6006044318702242e-07 3.4440393085526588e-06  6.7073294018620870e-07 5.8309863208662086e-07 -5.9474827249298707e-09  -9.1078663338560591e-08 3.2893320551808834e-06 1.4900932493078170e-06  -3.9282577997389635e-07 -1.6251417670957815e-06 2.3602227603881480e-06  3.1520861093228032e-07 -2.7336133850166420e-07 -3.3567276330075303e-06  -2.5152519637644528e-07 2.3275261585945099e-06 -2.7004486033915251e-06  8.5667332621118588e-08 -2.5862448186340682e-06 2.8889301564338860e-06  -6.7559206573865360e-08 -4.0991572835598369e-06 -1.8341844695485557e-08  -2.1850417622216638e-07 9.2077349727562308e-07 3.7683225049837583e-06  7.6642354330395252e-08 -2.8822871350634397e-06 -2.8614226133137275e-06  -1.8432277136366538e-07 -2.9861396203168880e-07 -4.0138621238329906e-06  3.3317665406268368e-07 3.0705134789423915e-06 1.4622397231212169e-06  5.8763796794462678e-07 -1.4593574702811150e-06 2.2090937323546479e-06  -6.0979983956171087e-07 1.8326423880947374e-07 -2.8051163966085815e-06  6.5471672307880244e-08 1.5215858504927924e-06 -4.1523292214473275e-06  -6.7463900112189682e-08 4.2198649066268700e-06 -1.0925884048113822e-06  -4.4062639995398532e-07 2.4373913494838146e-06 2.3517496925010472e-06  -3.7851636630246226e-07 3.5979402963023416e-06 -2.1508851060838229e-07  5.6485515677121592e-07 1.5662989597403687e-06 -2.6529885345075027e-06  -7.6290716943102891e-07 -1.4334906887508282e-06 4.3333108225565247e-07  9.2484647894348883e-08 2.3486912631313365e-06 3.6811096781477632e-06  7.0965887790936363e-07 -1.5067412798793691e-06 -1.7425258151214200e-06  -7.0022175330668640e-07 2.4820955825615966e-07 2.6052646996897968e-06  -3.8297504735716022e-07 -3.5612773945664864e-06 6.4704617019730276e-07  6.3168636866216750e-07 1.2383770630365264e-06 2.6408415849032004e-06  -1.2541900535084924e-07 -1.0523476537646611e-06 4.4335027549247250e-06  1.1995739125593064e-07 -4.2785379327881461e-06 1.2568106224882842e-06  1.0562146513807551e-07 -4.4505020252337515e-06 -1.1734724221731090e-06  -1.4320508529329875e-07 -3.7680004671014172e-06 -2.3089296203677240e-06  4.4027588204463743e-07 3.4899661035585458e-06 -9.9975459949404964e-07  -1.3377280490861118e-07 -3.6847820619632945e-06 2.3670426678174658e-06  7.3443160441234553e-08 4.5698584537156717e-06 5.5690931526919441e-07  2.9846300694865629e-07 -1.4073678284353021e-06 4.1397504047330120e-06  -6.1571248947050115e-07 2.2407490072469071e-06 -1.9963129757719625e-06  -8.1582097856530215e-08 2.2729723615637539e-06 -6.4161855701924533e-07  -2.6886451858396952e-07 1.2136084488807593e-06 1.4270004060093123e-06  </DataArray> 
</PointData> 
</Piece>
</UnstructuredGrid>
</VTKFile>