<?xml version="1.0"?>
<VTKFile type="UnstructuredGrid"  version="0.1"  >
<UnstructuredGrid>
<Piece  NumberOfPoints="201" NumberOfCells="657">
<Points>
<DataArray  type="Float64"  NumberOfComponents="3"  format="ascii">-0.06861868140509861 0.3732384888975793 5367.725136777759  -0.4268300162692312 0.5967832543280648 -5367.965072865431  305.793764912183 0.7307299161022019 -5101.054615232614  579.2302856676846 0.8822115428084031 -4329.365329180377  792.4458599751928 0.09391997053385771 -3136.864536460858  926.5358771508445 -0.08337041175782504 -1645.285739677843  972.6087996456058 -0.1673169263872056 -0.1288273839842134  926.6829936755029 -0.1294520222970484 1645.30612853394  792.5864256655152 0.4263099114112058 3136.484533606922  579.6720293197865 0.5018256444986049 4329.475985173452  306.2731557840332 0.5292451877739711 5101.026414299227  387.8445905222894 -770.829708404955 -4659.228543473614  385.2560896780786 598.9810456322832 4775.281612769483  928.6730484737652 -709.8132018261183 -788.9293352033558  674.8941343501148 -758.6563481358389 3562.967947117896  847.6142501160505 712.5997034766252 2240.982380886604  843.9813926135199 712.184768149334 -2280.433645139579  432.6886121653624 691.5994842013313 -4596.825925447856  149.5931813421221 -685.6942370463672 5102.660015310159  670.1141448061506 -699.2619721893881 -3638.871660742348  470.2950211490378 -1367.758155815776 -3765.638627127888  695.038870859961 -1356.070597038144 -2587.178232921967  481.2648088132314 -1935.304989108078 -2488.356020768736  674.4753495083702 -1830.696080515428 -1223.246895455295  427.4873006464932 -2318.209744195264 -1040.560497921703  605.1702979362869 -2086.244805641049 262.8162558282926  320.8671317386233 -2477.621736509094 474.9430969097948  463.0239751825557 -2146.131387355391 1801.653582400953  167.8565989916487 -2399.703652219925 1917.912407050037  296.4562740358337 -1942.392859728286 3170.513188221775  -11.44977200830685 -2085.032556883012 3177.891564009265  702.8093157727633 -1692.187824523199 1517.818288578712  670.3732601758675 699.5846994840464 3638.937208733412  681.5229834482296 1363.946870176525 2676.340539876391  821.3077966485462 1318.923675357196 1208.898298563485  110.7433629768754 -1535.058855500308 4254.617460893503  403.3634826920972 -1350.917006117603 4007.519418945098  470.2073613297268 1288.756209439582 3882.625444195926  455.31127902481 1902.440267420347 2716.911874435099  930.3994241041486 -692.1704931583048 788.8170095669775  826.7468643339996 -1428.727515440678 91.28066939696902  849.1301318137623 -713.1976415598325 -2219.203758719625  149.2431157553085 686.6864996813047 -5102.997216501279  663.7528212206919 681.4359663987932 -3689.084518259049  676.3146919898501 1355.839571590151 -2730.49338033206  208.0132857411525 -2325.711106927181 -2160.383570694912  -145.738966802922 -2429.193313502874 1815.658325665177  201.2528107920418 -1392.126426970204 -4368.448994248843  815.6901457343165 1334.385449794794 -1249.515488984154  616.7434317143354 1920.505467684669 -1506.570108564435  439.0452751962263 1851.627631879865 -2923.955695745234  348.8431686777779 2321.665998705221 -1626.563589490822  153.947667086833 2163.601636505301 -2847.543935862286  45.41287063173523 2512.062357452478 -1476.92178847014  -158.1664629813125 2229.582030251411 -2628.179517788192  -261.5070857329456 2471.398781826289 -1113.318690321415  -457.6729016959046 2105.89083332768 -2011.698543634579  -50.36639995957625 2620.288329752537 98.43790409244707  -319.3325633470812 -2009.831640852402 2928.240815044648  -441.5461587249887 -2242.956061666835 1447.726082895974  -537.0346449012478 2200.406109503533 -543.1739569554995  -703.3319095147613 1721.20829749067 -1376.783832158456  -748.0264362314455 1722.204163058379 123.1415140629453  -870.0007136320692 1137.340711294016 -859.349156708735  -881.0526786569648 1080.092262933759 801.569442485778  -775.5294284371063 1069.676915206834 -2450.786721818691  -719.187557145637 1587.443739212952 1728.206612469668  -915.9915930477058 471.0419606839463 -1560.166253247684  -815.3967618496092 881.7196736530576 2358.374158925499  -783.8334984994633 299.4090942806199 -3146.402185092143  -876.9988894343288 -340.9735908287594 -2242.260167771322  -611.8500737205112 1317.314663688624 3208.821554501803  -137.2837546454076 -1056.628474057166 4824.464065624704  -597.8236770580388 -1729.265949243373 2384.311501349136  -706.21259502669 -455.8580302303226 -3595.472857300846  -763.4330363197132 -1079.356047629741 -2543.982990871048  -935.9648215615902 299.6205197845289 1345.836083454595  -333.4821128879028 1724.579719996521 -3565.158710575185  -673.3265030723394 560.9349659994783 3722.689914052957  214.6798134131107 1738.618595296075 3786.083786277249  -904.7418978433968 -893.1810655864006 -902.4991827294781  -574.3131951624679 180.9877493007209 -4335.553246591799  -449.1061919967902 992.1542031635661 4302.812824864548  -553.8126546812391 -1147.137910727972 -3745.114043678684  -581.582623260009 -1725.639475866623 -2508.234416139024  -491.877106104796 1942.738322237557 2406.868756471311  -253.6358109959862 -2535.162418043073 343.9965606952845  -472.0486524703371 166.6524248439688 4693.703452578598  -693.4546927912002 -242.1062906699919 3752.600563265548  -337.2406550438301 -1712.879210079595 -3577.7251907258  -339.956915512316 -2205.426553827711 -2213.826185218559  -289.6443816319933 -1073.019102776399 -4608.383255557334  506.9596801257551 2265.308785166038 -150.6860830913084  -676.144096612294 -1867.964126957326 945.7502205808606  -807.1513249651905 -1260.931602231448 1653.40344289822  179.7226961835895 2260.096725662896 2482.210403142432  -64.75427035756977 2026.505115093781 3316.329280800648  -22.26438943875426 1513.077935676399 4328.064137732904  -268.5652108893708 636.0043007988678 4986.794972119892  -448.3214450994528 -1397.226270797571 3796.424179769916  235.1587037057861 1699.235121743504 -3826.540099156754  -558.5677114933486 -2099.303604121892 -1165.543632533265  -73.98819693722673 1292.590035718151 -4610.302490050694  -163.2472421477683 551.2055756149058 -5163.806803652329  -111.9573290641188 2441.363370641254 1815.325332169859  -209.5338423146516 -390.2118190338693 5179.05893265991  -72.58373650832614 -2125.746817652079 -3044.708162088229  -451.5355876611769 -630.5871723974184 4579.529773797165  -693.3189670387604 -1032.381234336549 3147.430560843132  -856.6023845354293 -500.2772854666163 2359.347365963054  -934.5839952741708 -654.9702178815794 746.8268403950667  -968.3267949766877 -85.4289952301681 -462.1596399332565  -381.4000574053208 1102.583800685534 -4378.912045265706  -576.4741822586002 1230.588464241938 -3526.940200724687  -85.68416453024663 -2460.671822001455 -1750.042115859419  -34.07605636177647 1908.171480602328 -3605.498630572333  399.6709259720653 2304.200949914561 1395.207170699858  843.9941028737803 -681.4078033707198 2321.862707307578  49.38849938584848 -718.8792408871152 -5139.80920140368  159.1552951176558 -2558.502112851382 -823.3957285998554  -303.5206125348417 1648.792818206946 3783.812754103627  932.4111005957349 664.7516712113478 -805.8206138405147  634.6389051405131 1904.441351671271 1372.695207488361  745.0643637034068 1732.566342682532 -60.86777425017252  -753.5637115103141 -1564.276652068158 -1348.250482523811  -332.939611065182 2468.959760628406 415.7944038124937  -554.5427499616961 2130.975633912336 976.4580052313376  -54.22565880350243 -1569.288378419722 -4231.855418292845  -231.386118796867 -283.1850026594618 -5183.081620668527  -485.8755096084262 -458.4065228909759 -4565.611905019943  232.6278044784251 2550.546091071373 -273.1549148449582  27.40051927188343 -2606.233564588648 594.0550228429503  548.3365294664819 -1644.393250392824 2907.888701988205  934.0308159562799 673.6434456996126 715.0962963132127  433.2279200445981 -685.3590288332256 4599.125358883226  -831.2580899588634 -1408.078725945049 131.4802218246835  -178.57298615399 -1699.114892097282 3910.448321560674  483.0074029604722 1248.948347555778 -3890.368995862193  -837.8600196183169 208.9987612534726 2716.490813731389  224.3960746079874 -1927.232665205056 -3366.061434607065  243.7801811260497 1230.51149573321 4514.884723375278  143.5689128282682 2534.371939202342 1123.591837028712  -616.7947107300156 1637.260036246904 -2507.027971282866  821.6454984418798 -1269.645283992289 -1392.906041041116  -15.11910802606685 662.3341325262465 5180.986346984054  746.2102545635335 -1227.940633561505 2422.819203421755  -946.4616511072101 630.5212301795708 -121.0326935636354  -516.6139380149084 -2251.766411590557 51.4911321028021  -317.2986335350758 -2451.925622407083 -885.7498768814423  879.1701504845364 1167.164983224004 -37.07527739548369  -222.078712793609 1262.384823998553 4509.014107472934  275.9733015480236 1145.654223537686 -4557.066930201386  -334.2774599060593 188.0869726738817 -5033.421361644656  -366.3605334021873 2290.170822775137 1697.986651344992  834.9413382444284 -1180.780209416611 1465.245370411571  -68.6645611015819 -2604.491037847826 -536.8632368218176  -632.4885227087606 672.0221977543343 -3860.205530160218  -434.0493231292999 565.6441530335143 -4668.430817191044  -279.776750042921 2092.030945403857 2804.526458813561  -697.0245005018025 -1868.240841308042 -298.4753215274454  0.003751101650488003 0.06021254634171057 -0.1695041936378787  -311.5100593224763 -1039.312431439097 147.5250038484183  468.6141658681482 405.5323338692705 -24.47329046888646  -187.8439117934494 1089.305057170025 1173.115874713439  350.5155015829783 -773.28765572673 1066.843768502211  -228.3767298606102 112.1619189973585 -2372.711602615305  -481.5040427833167 206.2983397463951 1.898748897222768  92.78434764187617 1232.019544711722 -1019.025165298098  326.4936705907473 -607.1394275031566 -1595.359546623406  -253.755590044394 -114.6467727165839 2300.925079782789  244.4121254381395 914.1969691686882 1855.315368182555  -90.40033819517744 -1041.892228048986 -2016.336944035647  81.06093891716947 -1512.349643773772 9.768209116444405  194.2181275456071 398.136
[...]
<PointData  Vectors="Tidal Force"> 
<DataArray  type="Float64"  Name="Tidal Force"  NumberOfComponents="3" format="ascii">3.3557768069500051e-26 4.7883601668627601e-16 0.0000000000000000e+00  5.3692428911200082e-26 7.6613762669804163e-16 0.0000000000000000e+00  6.5437647735525112e-26 9.3373023253823830e-16 0.0000000000000000e+00  7.9280227064193874e-26 1.1312500894213271e-15 0.0000000000000000e+00  8.8089141182437630e-27 1.2569445438014745e-16 0.0000000000000000e+00  -7.1310257147687619e-27 -1.0175265354583366e-16 0.0000000000000000e+00  -1.5100995631275024e-26 -2.1547620750882422e-16 0.0000000000000000e+00  -1.1745218824325018e-26 -1.6759260584019660e-16 0.0000000000000000e+00  3.8591433279925060e-26 5.5066141918921744e-16 0.0000000000000000e+00  4.4883514792956317e-26 6.4044317231789415e-16 0.0000000000000000e+00  4.6980875297300071e-26 6.7037042336078639e-16 0.0000000000000000e+00  -7.1681070484855595e-23 -1.0228176734427200e-12 0.0000000000000000e+00  5.5699602913857056e-23 7.9477800594608951e-13 0.0000000000000000e+00  -6.5932205342449359e-23 -9.4078707833415220e-13 0.0000000000000000e+00  -7.0518713293348279e-23 -1.0062319909147490e-12 0.0000000000000000e+00  6.6207798512720121e-23 9.4471951912118817e-13 0.0000000000000000e+00  6.6170884967843684e-23 9.4419279950283339e-13 0.0000000000000000e+00  6.4308009367885566e-23 9.1761141512653651e-13 0.0000000000000000e+00  -6.3777377160286585e-23 -9.1003982061268465e-13 0.0000000000000000e+00  -6.4996363085411182e-23 -9.2743353891881371e-13 0.0000000000000000e+00  -1.2714744691062961e-22 -1.8142677690728398e-12 0.0000000000000000e+00  -1.2601277487777965e-22 -1.7980771262586352e-12 0.0000000000000000e+00  -1.7984908271957772e-22 -2.5662677623782191e-12 0.0000000000000000e+00  -1.7008251379505057e-22 -2.4269085251718869e-12 0.0000000000000000e+00  -2.1538969540988435e-22 -3.0733970022004455e-12 0.0000000000000000e+00  -1.9381918156691057e-22 -2.7656071961247157e-12 0.0000000000000000e+00  -2.3019915793105561e-22 -3.2847133218143077e-12 0.0000000000000000e+00  -1.9941913411350841e-22 -2.8455129564092383e-12 0.0000000000000000e+00  -2.2299724143124003e-22 -3.1819491271832242e-12 0.0000000000000000e+00  -1.8054624535122157e-22 -2.5762155806248766e-12 0.0000000000000000e+00  -1.9380911423648972e-22 -2.7654635453197097e-12 0.0000000000000000e+00  -1.5721814340560774e-22 -2.2433467381752030e-12 0.0000000000000000e+00  6.5025726132471994e-23 9.2785252043341430e-13 0.0000000000000000e+00  1.2674810947060256e-22 1.8085696204742732e-12 0.0000000000000000e+00  1.2252696171956033e-22 1.7483380350253481e-12 0.0000000000000000e+00  -1.4273041598580284e-22 -2.0366212588713208e-12 0.0000000000000000e+00  -1.2559372224901177e-22 -1.7920976615002653e-12 0.0000000000000000e+00  1.1980668514542648e-22 1.7095223904227168e-12 0.0000000000000000e+00  1.7680413473937143e-22 2.5228193793141480e-12 0.0000000000000000e+00  -6.4295005732758636e-23 -9.1742586617007062e-13 0.0000000000000000e+00  -1.3271803641016663e-22 -1.8937545478427617e-12 0.0000000000000000e+00  -6.6263168830034793e-23 -9.4550959854872055e-13 0.0000000000000000e+00  6.3866724717771630e-23 9.1131472150711191e-13 0.0000000000000000e+00  6.3341126175383089e-23 9.0381495239576314e-13 0.0000000000000000e+00  1.2599725441004750e-22 1.7978556646009177e-12 0.0000000000000000e+00  -2.1612880525161506e-22 -3.0839433654679606e-12 0.0000000000000000e+00  -2.2573429688940859e-22 -3.2210041897941985e-12 0.0000000000000000e+00  -1.2944573455128950e-22 -1.8470620507656413e-12 0.0000000000000000e+00  1.2396365366503579e-22 1.7688382019897294e-12 0.0000000000000000e+00  1.7843839804435609e-22 2.5461386933267696e-12 0.0000000000000000e+00  1.7209220463031278e-22 2.4555848171211865e-12 0.0000000000000000e+00  2.1573114569999150e-22 3.0782691586702284e-12 0.0000000000000000e+00  2.0109324726807559e-22 2.8694008881916748e-12 0.0000000000000000e+00  2.3342741521934151e-22 3.3307773466195275e-12 0.0000000000000000e+00  2.0721502310815414e-22 2.9567525485356687e-12 0.0000000000000000e+00  2.2963496795538714e-22 3.2766628912837696e-12 0.0000000000000000e+00  1.9568792977628087e-22 2.7922723768039330e-12 0.0000000000000000e+00  2.4346118787212202e-22 3.4739493156087238e-12 0.0000000000000000e+00  -1.8680183279147725e-22 -2.6654765995854069e-12 0.0000000000000000e+00  -2.0840758229092398e-22 -2.9737691834786571e-12 0.0000000000000000e+00  2.0443308413519259e-22 2.9170570427523764e-12 0.0000000000000000e+00  1.5991115429318512e-22 2.2817733285142766e-12 0.0000000000000000e+00  1.5998875663184583e-22 2.2828806368028637e-12 0.0000000000000000e+00  1.0565243804581222e-22 1.5075553440346542e-12 0.0000000000000000e+00  1.0033269286259473e-22 1.4316478644894623e-12 0.0000000000000000e+00  9.9392655884547859e-23 1.4182344705720380e-12 0.0000000000000000e+00  1.4748890749805794e-22 2.1045202060374347e-12 0.0000000000000000e+00  4.3758071146325464e-23 6.2438420940827818e-13 0.0000000000000000e+00  8.1924579188070474e-23 1.1689823675362056e-12 0.0000000000000000e+00  2.7823164978523363e-23 3.9700892688480002e-13 0.0000000000000000e+00  -3.1678952529708919e-23 -4.5202718520205312e-13 0.0000000000000000e+00  1.2243425838526833e-22 1.7470152505292523e-12 0.0000000000000000e+00  -9.8266792765816137e-23 -1.4021695222122135e-12 0.0000000000000000e+00  -1.6069263081710360e-22 -2.2929242222528584e-12 0.0000000000000000e+00  -4.2370876908752509e-23 -6.0459032556850930e-13 0.0000000000000000e+00  -1.0029494037351655e-22 -1.4311091739706903e-12 0.0000000000000000e+00  2.7831134948439871e-23 3.9712265043876301e-13 0.0000000000000000e+00  1.6031384751001912e-22 2.2875193607145120e-12 0.0000000000000000e+00  5.2139543193783968e-23 7.4397949002588418e-13 0.0000000000000000e+00  1.6163057043464615e-22 2.3063076889192400e-12 0.0000000000000000e+00  -8.2966967358729322e-23 -1.1838562113045231e-12 0.0000000000000000e+00  1.6825864910047325e-23 2.4008837876649877e-13 0.0000000000000000e+00  9.2244012341542615e-23 1.3162304281174442e-12 0.0000000000000000e+00  -1.0663693906655119e-22 -1.5216031956741878e-12 0.0000000000000000e+00  -1.6035915049691294e-22 -2.2881657893370384e-12 0.0000000000000000e+00  1.8053617802080072e-22 2.5760719298198706e-12 0.0000000000000000e+00  -2.3554658827293041e-22 -3.3610158410732657e-12 0.0000000000000000e+00  1.5495718878192517e-23 2.2110851615509654e-13 0.0000000000000000e+00  -2.2507195044213685e-23 -3.2115531639148531e-13 0.0000000000000000e+00  -1.5922783424086993e-22 -2.2720230301245026e-12 0.0000000000000000e+00  -2.0494819587505940e-22 -2.9244071756085105e-12 0.0000000000000000e+00  -9.9781925994154062e-23 -1.4237889683655989e-12 0.0000000000000000e+00  2.1046299558518087e-22 3.0030978895006914e-12 0.0000000000000000e+00  -1.7354064179461257e-22 -2.4762525766914078e-12 0.0000000000000000e+00  -1.1714639308171686e-22 -1.6715626651999124e-12 0.0000000000000000e+00  2.1004394295641301e-22 2.9971184247423219e-12 0.0000000000000000e+00  1.8837149739292814e-22 2.6878741542659077e-12 0.0000000000000000e+00  1.4068800632667289e-22 2.0074781018057522e-12 0.0000000000000000e+00  5.9146824638796446e-23 8.4396643576018719e-13 0.0000000000000000e+00  -1.2988911656190778e-22 -1.8533886716361086e-12 0.0000000000000000e+00  1.5797151529876800e-22 2.2540966067498099e-12 0.0000000000000000e+00  -1.9504362062934648e-22 -2.7830787252835565e-12 0.0000000000000000e+00  1.2020056944814225e-22 1.7151427281685721e-12 0.0000000000000000e+00  5.1267041223976972e-23 7.3152975359204107e-13 0.0000000000000000e+00  2.2686561314545164e-22 3.2371469490067347e-12 0.0000000000000000e+00  -3.6292726167164303e-23 -5.1786115204620748e-13 0.0000000000000000e+00  -1.9758436314430850e-22 -2.8193325971969161e-12 0.0000000000000000e+00  -5.8638424452543519e-23 -8.3671207010739012e-13 0.0000000000000000e+00  -9.5948370464314554e-23 -1.3690879389094004e-12 0.0000000000000000e+00  -4.6482122969367132e-23 -6.6325372306278668e-13 0.0000000000000000e+00  -6.0837716677398378e-23 -8.6809378555096695e-13 0.0000000000000000e+00  -7.9343147879324191e-24 -1.1321479069526139e-13 0.0000000000000000e+00  1.0251814250812093e-22 1.4628320600761561e-12 0.0000000000000000e+00  1.1438584718589961e-22 1.6321724173772575e-12 0.0000000000000000e+00  -2.2865717848826207e-22 -3.2627108068475732e-12 0.0000000000000000e+00  1.7738720095957903e-22 2.5311391551040723e-12 0.0000000000000000e+00  2.1409939922761208e-22 3.0549857573588581e-12 0.0000000000000000e+00  -6.3310504712019667e-23 -9.0337801453053695e-13 0.0000000000000000e+00  -6.6865950238983194e-23 -9.5411069049844778e-13 0.0000000000000000e+00  -2.3772239006013664e-22 -3.3920623713051621e-12 0.0000000000000000e+00  1.5327762249004672e-22 2.1871194189158173e-12 0.0000000000000000e+00  6.1748810080485304e-23 8.8109418340399934e-13 0.0000000000000000e+00  1.7694172158845641e-22 2.5247826069825619e-12 0.0000000000000000e+00  1.6095144510333962e-22 2.2966172450315514e-12 0.0000000000000000e+00  -1.4532568987387779e-22 -2.0736532393117953e-12 0.0000000000000000e+00  2.2939502991369020e-22 3.2732392137644629e-12 0.0000000000000000e+00  1.9798663688904162e-22 2.8250726439469428e-12 0.0000000000000000e+00  -1.4591337028719490e-22 -2.0820388550540138e-12 0.0000000000000000e+00  -2.6340331101952330e-23 -3.7585036039747522e-13 0.0000000000000000e+00  -4.2626754890282442e-23 -6.0824145019574208e-13 0.0000000000000000e+00  2.3697740760899373e-22 3.3814322117347268e-12 0.0000000000000000e+00  -2.4215704911052108e-22 -3.4553405509102537e-12 0.0000000000000000e+00  -1.5282668998161281e-22 -2.1806850599415954e-12 0.0000000000000000e+00  6.2574331174995015e-23 8.9287354941448178e-13 0.0000000000000000e+00  -6.3732074173392769e-23 -9.0939339199015827e-13 0.0000000000000000e+00  -1.3079811260449034e-22 -1.8663591422380979e-12 0.0000000000000000e+00  -1.5796774004986019e-22 -2.2540427376979328e-12 0.0000000000000000e+00  1.1610736068786498e-22 1.6567367050332635e-12 0.0000000000000000e+00  1.9418621965517073e-23 2.7708444650572218e-13 0.0000000000000000e+00  -1.7914646695062255e-22 -2.5562421332788501e-12 0.0000000000000000e+00  1.1441982442606999e-22 1.6326572388441524e-12 0.0000000000000000e+00  2.3548912059511142e-22 3.3601958343946907e-12 0.0000000000000000e+00  1.5214630623400369e-22 2.1709766597032811e-12 0.0000000000000000e+00  -1.1795010162698140e-22 -1.6830307877995486e-12 0.0000000000000000e+00  6.1599897484676902e-23 8.7896934857995401e-13 0.0000000000000000e+00  -1.1409976721310713e-22 -1.6280903403350070e-12 0.0000000000000000e+00  5.8566694723294965e-23 8.3568855812172325e-13 0.0000000000000000e+00  -2.0920206244996942e-22 -2.9851056261737050e-12 0.0000000000000000e+00  -2.2781697587022197e-22 -3.2507219500797906e-12 0.0000000000000000e+00  1.0841885655104164e-22 1.5470293881602292e-12 0.0000000000000000e+00  1.1738381429080858e-22 1.6749504300179677e-12 0.0000000000000000e+00  1.0653207104133399e-22 1.5201068331220433e-12 0.0000000000000000e+00  1.7489889245722558e-23 2.4956334644667848e-13 0.0000000000000000e+00  2.1280448885223026e-22 3.0365086725649766e-12 0.0000000000000000e+00  -1.0969489068188439e-22 -1.5652371276947249e-12 0.0000000000000000e+00  -2.4199345499118226e-22 -3.4530062253289080e-12 0.0000000000000000e+00  6.2470302093979563e-23 8.9138915776275433e-13 0.0000000000000000e+00  5.2598026200033517e-23 7.5052158710386048e-13 0.0000000000000000e+00  1.9443496661098591e-22 2.7743938370309091e-12 0.0000000000000000e+00  -1.7355867909494992e-22 -2.4765099510503767e-12 0.0000000000000000e+00  5.0336652104250084e-27 7.1825402502941406e-17 0.0000000000000000e+00  -9.6526403019311693e-23 -1.3773358892968216e-12 0.0000000000000000e+00  3.7663141520702511e-23 5.3741561787763327e-13 0.0000000000000000e+00  1.0117876809004700e-22 1.4437205175601650e-12 0.0000000000000000e+00  -7.1822852054949227e-23 -1.0248407556132195e-12 0.0000000000000000e+00  1.0420945401882374e-23 1.4869653953171445e-13 0.0000000000000000e+00  1.9159807679281054e-23 2.7339142372702929e-13 0.0000000000000000e+00  1.1443576436590299e-22 1.6328846859520784e-12 0.0000000000000000e+00  -5.6393409768693967e-23 -8.0467794059107831e-13 0.0000000000000000e+00  -1.0651235585259317e-23 -1.5198255169622400e-13 0.0000000000000000e+00  8.4922126820878573e-23 1.2117543947267073e-12 0.0000000000000000e+00  -9.6788992554455537e-23 -1.3810827811273917e-12 0.0000000000000000e+00  -1.4046988083422115e-22 -2.0043656676972915e-12 0.0000000000000000e+00  3.6989888798808166e-23 5.2780897029286487e-13 0.0000000000000000e+00  -1.0881651610266520e-22 -1.5527035949579615e-12 0.0000000000000000e+00  -1.3179813409296146e-23 -1.8806284555353491e-13 0.0000000000000000e+00  1.0691001540421674e-22 1.5254997237599724e-12 0.0000000000000000e+00  -5.1044721010516528e-23 -7.2835746498149447e-13 0.0000000000000000e+00  6.4045000360640847e-24 9.1385853784575773e-14 0.0000000000000000e+00  6.5592432940745679e-23 9.3593886366520375e-13 0.0000000000000000e+00  1.5002503581991040e-22 2.1407082379984998e-12 0.0000000000000000e+00  8.8628582304154855e-23 1.2646418327697065e-12 0.0000000000000000e+00  1.2478036584542726e-22 1.7804918735458315e-12 0.0000000000000000e+00  5.6344751004993187e-23 8.0398362836688313e-13 0.0000000000000000e+00  -4.6978777936795733e-23 -6.7034049610974356e-13 0.0000000000000000e+00  9.7847320664947389e-23 1.3961840720036351e-12 0.0000000000000000e+00  -5.1910511426709633e-23 -7.4071143421200039e-13 0.0000000000000000e+00  8.8735128217775506e-24 1.2661621371226853e-13 0.0000000000000000e+00  -1.2282017271806759e-22 -1.7525218647211445e-12 0.0000000000000000e+00  4.5188890482388766e-23 6.4480058006973925e-13 0.0000000000000000e+00  -4.7613019753309282e-23 -6.7939049682511418e-13 0.0000000000000000e+00  -1.5398149667530445e-22 -2.1971630043658116e-12 0.0000000000000000e+00  -1.6202781051416883e-22 -2.3119759102667635e-12 0.0000000000000000e+00  -1.4256556345016141e-22 -2.0342689769393494e-12 0.0000000000000000e+00  1.2220145136928617e-22 1.7436933256634913e-12 0.0000000000000000e+00  -1.3889644098386246e-22 -1.9819142439649137e-12 0.0000000000000000e+00  1.6430176877297835e-22 2.3444230358474676e-12 0.0000000000000000e+00  -6.1428333395421581e-23 -8.7652129944464538e-13 0.0000000000000000e+00  7.9778979392126824e-23 1.1383667897193269e-12 0.0000000000000000e+00  7.4065769378294437e-23 1.0568449578784884e-12 0.0000000000000000e+00  3.9860755857153899e-23 5.6877339152037580e-13 0.0000000000000000e+00  </DataArray> 
</PointData> 
</Piece>
</UnstructuredGrid>
</VTKFile>