<?xml version="1.0"?>
<VTKFile type="UnstructuredGrid"  version="0.1"  >
<UnstructuredGrid>
<Piece  NumberOfPoints="201" NumberOfCells="657">
<Points>
<DataArray  type="Float64"  NumberOfComponents="3"  format="ascii">-0.06861868140509861 0.3732384888975793 5367.725136777759  -0.4268300162692312 0.5967832543280648 -5367.965072865431  305.793764912183 0.7307299161022019 -5101.054615232614  579.2302856676846 0.8822115428084031 -4329.365329180377  792.4458599751928 0.09391997053385771 -3136.864536460858  926.5358771508445 -0.08337041175782504 -1645.285739677843  972.6087996456058 -0.1673169263872056 -0.1288273839842134  926.6829936755029 -0.1294520222970484 1645.30612853394  792.5864256655152 0.4263099114112058 3136.484533606922  579.6720293197865 0.5018256444986049 4329.475985173452  306.2731557840332 0.5292451877739711 5101.026414299227  387.8445905222894 -770.829708404955 -4659.228543473614  385.2560896780786 598.9810456322832 4775.281612769483  928.6730484737652 -709.8132018261183 -788.9293352033558  674.8941343501148 -758.6563481358389 3562.967947117896  847.6142501160505 712.5997034766252 2240.982380886604  843.9813926135199 712.184768149334 -2280.433645139579  432.6886121653624 691.5994842013313 -4596.825925447856  149.5931813421221 -685.6942370463672 5102.660015310159  670.1141448061506 -699.2619721893881 -3638.871660742348  470.2950211490378 -1367.758155815776 -3765.638627127888  695.038870859961 -1356.070597038144 -2587.178232921967  481.2648088132314 -1935.304989108078 -2488.356020768736  674.4753495083702 -1830.696080515428 -1223.246895455295  427.4873006464932 -2318.209744195264 -1040.560497921703  605.1702979362869 -2086.244805641049 262.8162558282926  320.8671317386233 -2477.621736509094 474.9430969097948  463.0239751825557 -2146.131387355391 1801.653582400953  167.8565989916487 -2399.703652219925 1917.912407050037  296.4562740358337 -1942.392859728286 3170.513188221775  -11.44977200830685 -2085.032556883012 3177.891564009265  702.8093157727633 -1692.187824523199 1517.818288578712  670.3732601758675 699.5846994840464 3638.937208733412  681.5229834482296 1363.946870176525 2676.340539876391  821.3077966485462 1318.923675357196 1208.898298563485  110.7433629768754 -1535.058855500308 4254.617460893503  403.3634826920972 -1350.917006117603 4007.519418945098  470.2073613297268 1288.756209439582 3882.625444195926  455.31127902481 1902.440267420347 2716.911874435099  930.3994241041486 -692.1704931583048 788.8170095669775  826.7468643339996 -1428.727515440678 91.28066939696902  849.1301318137623 -713.1976415598325 -2219.203758719625  149.2431157553085 686.6864996813047 -5102.997216501279  663.7528212206919 681.4359663987932 -3689.084518259049  676.3146919898501 1355.839571590151 -2730.49338033206  208.0132857411525 -2325.711106927181 -2160.383570694912  -145.738966802922 -2429.193313502874 1815.658325665177  201.2528107920418 -1392.126426970204 -4368.448994248843  815.6901457343165 1334.385449794794 -1249.515488984154  616.7434317143354 1920.505467684669 -1506.570108564435  439.0452751962263 1851.627631879865 -2923.955695745234  348.8431686777779 2321.665998705221 -1626.563589490822  153.947667086833 2163.601636505301 -2847.543935862286  45.41287063173523 2512.062357452478 -1476.92178847014  -158.1664629813125 2229.582030251411 -2628.179517788192  -261.5070857329456 2471.398781826289 -1113.318690321415  -457.6729016959046 2105.89083332768 -2011.698543634579  -50.36639995957625 2620.288329752537 98.43790409244707  -319.3325633470812 -2009.831640852402 2928.240815044648  -441.5461587249887 -2242.956061666835 1447.726082895974  -537.0346449012478 2200.406109503533 -543.1739569554995  -703.3319095147613 1721.20829749067 -1376.783832158456  -748.0264362314455 1722.204163058379 123.1415140629453  -870.0007136320692 1137.340711294016 -859.349156708735  -881.0526786569648 1080.092262933759 801.569442485778  -775.5294284371063 1069.676915206834 -2450.786721818691  -719.187557145637 1587.443739212952 1728.206612469668  -915.9915930477058 471.0419606839463 -1560.166253247684  -815.3967618496092 881.7196736530576 2358.374158925499  -783.8334984994633 299.4090942806199 -3146.402185092143  -876.9988894343288 -340.9735908287594 -2242.260167771322  -611.8500737205112 1317.314663688624 3208.821554501803  -137.2837546454076 -1056.628474057166 4824.464065624704  -597.8236770580388 -1729.265949243373 2384.311501349136  -706.21259502669 -455.8580302303226 -3595.472857300846  -763.4330363197132 -1079.356047629741 -2543.982990871048  -935.9648215615902 299.6205197845289 1345.836083454595  -333.4821128879028 1724.579719996521 -3565.158710575185  -673.3265030723394 560.9349659994783 3722.689914052957  214.6798134131107 1738.618595296075 3786.083786277249  -904.7418978433968 -893.1810655864006 -902.4991827294781  -574.3131951624679 180.9877493007209 -4335.553246591799  -449.1061919967902 992.1542031635661 4302.812824864548  -553.8126546812391 -1147.137910727972 -3745.114043678684  -581.582623260009 -1725.639475866623 -2508.234416139024  -491.877106104796 1942.738322237557 2406.868756471311  -253.6358109959862 -2535.162418043073 343.9965606952845  -472.0486524703371 166.6524248439688 4693.703452578598  -693.4546927912002 -242.1062906699919 3752.600563265548  -337.2406550438301 -1712.879210079595 -3577.7251907258  -339.956915512316 -2205.426553827711 -2213.826185218559  -289.6443816319933 -1073.019102776399 -4608.383255557334  506.9596801257551 2265.308785166038 -150.6860830913084  -676.144096612294 -1867.964126957326 945.7502205808606  -807.1513249651905 -1260.931602231448 1653.40344289822  179.7226961835895 2260.096725662896 2482.210403142432  -64.75427035756977 2026.505115093781 3316.329280800648  -22.26438943875426 1513.077935676399 4328.064137732904  -268.5652108893708 636.0043007988678 4986.794972119892  -448.3214450994528 -1397.226270797571 3796.424179769916  235.1587037057861 1699.235121743504 -3826.540099156754  -558.5677114933486 -2099.303604121892 -1165.543632533265  -73.98819693722673 1292.590035718151 -4610.302490050694  -163.2472421477683 551.2055756149058 -5163.806803652329  -111.9573290641188 2441.363370641254 1815.325332169859  -209.5338423146516 -390.2118190338693 5179.05893265991  -72.58373650832614 -2125.746817652079 -3044.708162088229  -451.5355876611769 -630.5871723974184 4579.529773797165  -693.3189670387604 -1032.381234336549 3147.430560843132  -856.6023845354293 -500.2772854666163 2359.347365963054  -934.5839952741708 -654.9702178815794 746.8268403950667  -968.3267949766877 -85.4289952301681 -462.1596399332565  -381.4000574053208 1102.583800685534 -4378.912045265706  -576.4741822586002 1230.588464241938 -3526.940200724687  -85.68416453024663 -2460.671822001455 -1750.042115859419  -34.07605636177647 1908.171480602328 -3605.498630572333  399.6709259720653 2304.200949914561 1395.207170699858  843.9941028737803 -681.4078033707198 2321.862707307578  49.38849938584848 -718.8792408871152 -5139.80920140368  159.1552951176558 -2558.502112851382 -823.3957285998554  -303.5206125348417 1648.792818206946 3783.812754103627  932.4111005957349 664.7516712113478 -805.8206138405147  634.6389051405131 1904.441351671271 1372.695207488361  745.0643637034068 1732.566342682532 -60.86777425017252  -753.5637115103141 -1564.276652068158 -1348.250482523811  -332.939611065182 2468.959760628406 415.7944038124937  -554.5427499616961 2130.975633912336 976.4580052313376  -54.22565880350243 -1569.288378419722 -4231.855418292845  -231.386118796867 -283.1850026594618 -5183.081620668527  -485.8755096084262 -458.4065228909759 -4565.611905019943  232.6278044784251 2550.546091071373 -273.1549148449582  27.40051927188343 -2606.233564588648 594.0550228429503  548.3365294664819 -1644.393250392824 2907.888701988205  934.0308159562799 673.6434456996126 715.0962963132127  433.2279200445981 -685.3590288332256 4599.125358883226  -831.2580899588634 -1408.078725945049 131.4802218246835  -178.57298615399 -1699.114892097282 3910.448321560674  483.0074029604722 1248.948347555778 -3890.368995862193  -837.8600196183169 208.9987612534726 2716.490813731389  224.3960746079874 -1927.232665205056 -3366.061434607065  243.7801811260497 1230.51149573321 4514.884723375278  143.5689128282682 2534.371939202342 1123.591837028712  -616.7947107300156 1637.260036246904 -2507.027971282866  821.6454984418798 -1269.645283992289 -1392.906041041116  -15.11910802606685 662.3341325262465 5180.986346984054  746.2102545635335 -1227.940633561505 2422.819203421755  -946.4616511072101 630.5212301795708 -121.0326935636354  -516.6139380149084 -2251.766411590557 51.4911321028021  -317.2986335350758 -2451.925622407083 -885.7498768814423  879.1701504845364 1167.164983224004 -37.07527739548369  -222.078712793609 1262.384823998553 4509.014107472934  275.9733015480236 1145.654223537686 -4557.066930201386  -334.2774599060593 188.0869726738817 -5033.421361644656  -366.3605334021873 2290.170822775137 1697.986651344992  834.9413382444284 -1180.780209416611 1465.245370411571  -68.6645611015819 -2604.491037847826 -536.8632368218176  -632.4885227087606 672.0221977543343 -3860.205530160218  -434.0493231292999 565.6441530335143 -4668.430817191044  -279.776750042921 2092.030945403857 2804.526458813561  -697.0245005018025 -1868.240841308042 -298.4753215274454  0.003751101650488003 0.06021254634171057 -0.1695041936378787  -311.5100593224763 -1039.312431439097 147.5250038484183  468.6141658681482 405.5323338692705 -24.47329046888646  -187.8439117934494 1089.305057170025 1173.115874713439  350.5155015829783 -773.28765572673 1066.843768502211  -228.3767298606102 112.1619189973585 -2372.711602615305  -481.5040427833167 206.2983397463951 1.898748897222768  92.78434764187617 1232.019544711722 -1019.025165298098  326.4936705907473 -607.1394275031566 -1595.359546623406  -253.755590044394 -114.6467727165839 2300.925079782789  244.4121254381395 914.1969691686882 1855.315368182555  -90.40033819517744 -1041.892228048986 -2016.336944035647  81.06093891716947 -1512.349643773772 9.768209116444405  194.2181275456071 398.136
[...]
<PointData  Vectors="Coriolis"> 
<DataArray  type="Float64"  Name="Coriolis"  NumberOfComponents="3" format="ascii">4.1993103635508130e-12 4.9328023282570367e-13 0.0000000000000000e+00  5.9238889981447283e-12 4.2669586598853203e-12 0.0000000000000000e+00  7.3325729973945275e-12 3.2987363030777501e-11 0.0000000000000000e+00  8.9835250531773172e-12 8.7750791047808640e-11 0.0000000000000000e+00  8.3977792558424265e-13 1.7021219313089838e-10 0.0000000000000000e+00  -9.6097061210333624e-13 2.5227376700215238e-10 0.0000000000000000e+00  -1.8075875295782679e-12 2.8200983931183712e-10 0.0000000000000000e+00  -1.1823687664965775e-12 2.5067628216308860e-10 0.0000000000000000e+00  4.6916195807437337e-12 1.6865727790511621e-10 0.0000000000000000e+00  5.5031649942176507e-12 8.3118021921946541e-11 0.0000000000000000e+00  5.7662481855306204e-12 2.8003121575491387e-11 0.0000000000000000e+00  -1.7861394119545069e-10 3.7827446161336582e-11 0.0000000000000000e+00  1.4109472708880577e-10 3.7855792562537520e-11 0.0000000000000000e+00  -4.1144731076263278e-10 2.3835139556564122e-10 0.0000000000000000e+00  -2.7717517179125363e-10 1.0717461791865611e-10 0.0000000000000000e+00  3.5818083402701055e-10 1.8635113865226857e-10 0.0000000000000000e+00  3.5367062196230340e-10 1.8679983485355577e-10 0.0000000000000000e+00  1.7650504178776946e-10 4.6055510357897554e-11 0.0000000000000000e+00  -1.1496326432064123e-10 1.0560302074492669e-11 0.0000000000000000e+00  -2.5788078658593661e-10 1.1073406271253265e-10 0.0000000000000000e+00  -4.5948845580968313e-10 3.8253943179416779e-11 0.0000000000000000e+00  -6.1475539561068006e-10 9.4466834347333145e-11 0.0000000000000000e+00  -8.4138191627047104e-10 1.7231939872373341e-11 0.0000000000000000e+00  -9.4472618226663188e-10 6.0516204215193577e-11 0.0000000000000000e+00  -1.1491217929132678e-09 -5.5616580898280902e-12 0.0000000000000000e+00  -1.0952030420648289e-09 2.7686017688378053e-11 0.0000000000000000e+00  -1.2355759294981161e-09 -1.5888412309988400e-11 0.0000000000000000e+00  -1.0077904018071597e-09 1.6436651878680488e-12 0.0000000000000000e+00  -1.0724277253170028e-09 -1.0144639696575648e-11 0.0000000000000000e+00  -7.1829643440921306e-10 -8.2674017339194442e-14 0.0000000000000000e+00  -7.5588317177869654e-10 -7.9284368789608642e-13 0.0000000000000000e+00  -8.6138082081962836e-10 7.6424988791240264e-11 0.0000000000000000e+00  2.6142043965732478e-10 1.0786927396373412e-10 0.0000000000000000e+00  6.0732175328449388e-10 8.6315110216282876e-11 0.0000000000000000e+00  7.1094936590392692e-10 1.4547818263605226e-10 0.0000000000000000e+00  -4.1430852219145354e-10 1.3938996011885763e-12 0.0000000000000000e+00  -4.1388247057118942e-10 2.7418318573225530e-11 0.0000000000000000e+00  4.2298019861740703e-10 3.8326771319435389e-11 0.0000000000000000e+00  7.9701468744292399e-10 1.4366976110638711e-11 0.0000000000000000e+00  -3.9761710326676767e-10 2.3934189346068532e-10 0.0000000000000000e+00  -8.0058805512092734e-10 1.4455311549452386e-10 0.0000000000000000e+00  -3.5808456571318394e-10 1.9070549981509344e-10 0.0000000000000000e+00  1.2535369481972499e-10 1.4312629352343402e-11 0.0000000000000000e+00  2.4794753464487341e-10 1.0645823597303715e-10 0.0000000000000000e+00  5.9553429884319602e-10 8.5731120961939667e-11 0.0000000000000000e+00  -1.0158971535129607e-09 -8.0356786875019524e-12 0.0000000000000000e+00  -1.0954618317457133e-09 7.8634282659678630e-12 0.0000000000000000e+00  -3.5851479248444759e-10 1.0106552730215095e-11 0.0000000000000000e+00  7.1639383312692257e-10 1.4462650101307068e-10 0.0000000000000000e+00  9.5254300951009284e-10 3.9031286787791499e-11 0.0000000000000000e+00  7.4103891995157251e-10 1.6708499731038899e-11 0.0000000000000000e+00  1.0862775441300234e-09 -9.6348835567227940e-12 0.0000000000000000e+00  8.4673953132703230e-10 -2.3335633024948655e-12 0.0000000000000000e+00  1.1598711322546943e-09 -4.2284463529322326e-12 0.0000000000000000e+00  9.0740673793702699e-10 6.0953285885380176e-12 0.0000000000000000e+00  1.1847462118035302e-09 1.5563690970147172e-11 0.0000000000000000e+00  9.6317850866140004e-10 -5.2638075353706531e-12 0.0000000000000000e+00  1.2852034071320287e-09 3.7309438828134124e-12 0.0000000000000000e+00  -7.8433558840272303e-10 -1.3761883459649805e-12 0.0000000000000000e+00  -1.0817162699648070e-09 3.4262044967222167e-12 0.0000000000000000e+00  1.1282806116628024e-09 -9.0714655196138564e-12 0.0000000000000000e+00  8.8549160442669593e-10 -7.4127960618325992e-11 0.0000000000000000e+00  9.3610778722734918e-10 -9.0663453788868085e-11 0.0000000000000000e+00  6.3178993940115235e-10 -1.8325943464986428e-10 0.0000000000000000e+00  6.0558833952284192e-10 -1.9478064389052216e-10 0.0000000000000000e+00  5.0835533870738824e-10 -1.3586455927559211e-10 0.0000000000000000e+00  7.9965592120859486e-10 -8.9040868399771641e-11 0.0000000000000000e+00  2.5769851129056707e-10 -2.3945518914703730e-10 0.0000000000000000e+00  4.3125996514660077e-10 -1.6491782757912174e-10 0.0000000000000000e+00  1.3284529008810409e-10 -1.6113752353852733e-10 0.0000000000000000e+00  -1.7479283726534426e-10 -2.1393272308850125e-10 0.0000000000000000e+00  5.2220249695628335e-10 -6.9217644137326682e-11 0.0000000000000000e+00  -2.1458729971426201e-10 -8.9908091825667466e-12 0.0000000000000000e+00  -7.8286157821776847e-10 -4.8498376216252736e-11 0.0000000000000000e+00  -1.7197060561425526e-10 -1.2573170929446393e-10 0.0000000000000000e+00  -5.0315236548422321e-10 -1.3133202433372176e-10 0.0000000000000000e+00  1.7086649537463113e-10 -2.5585572983990347e-10 0.0000000000000000e+00  5.9293952641230830e-10 -9.1154841926440159e-12 0.0000000000000000e+00  2.0703466812626076e-10 -1.1113170109970468e-10 0.0000000000000000e+00  5.5770367133513440e-10 4.3256576202583667e-12 0.0000000000000000e+00  -5.1004336382839774e-10 -2.1619972741226694e-10 0.0000000000000000e+00  5.6860492980731899e-11 -7.9789158964619872e-11 0.0000000000000000e+00  2.8999995655388679e-10 -4.5596273055081398e-11 0.0000000000000000e+00  -3.9182801658118612e-10 -5.7397991384108336e-11 0.0000000000000000e+00  -7.6809014865532116e-10 -4.2715495655927781e-11 0.0000000000000000e+00  8.5859239878673322e-10 -1.8453298076811419e-11 0.0000000000000000e+00  -1.2589434039544358e-09 1.6174227863113501e-11 0.0000000000000000e+00  4.4980358396609977e-11 -5.7109498549401955e-11 0.0000000000000000e+00  -7.8692277576194490e-11 -1.2592182766503925e-10 0.0000000000000000e+00  -5.8278301017701561e-10 -9.2285526705716860e-12 0.0000000000000000e+00  -9.7034315652175081e-10 7.2020200357412259e-12 0.0000000000000000e+00  -2.4851419920183393e-10 -1.7486666538972282e-11 0.0000000000000000e+00  1.1626702661487319e-09 8.8508540741161966e-13 0.0000000000000000e+00  -9.7997691189626859e-10 -5.8703092208150569e-11 0.0000000000000000e+00  -6.5784670744161058e-10 -1.4256132677770386e-10 0.0000000000000000e+00  9.4332709130348088e-10 -6.1998634284962377e-12 0.0000000000000000e+00  7.2662270394829276e-10 8.0071094969330378e-13 0.0000000000000000e+00  4.0329962996746383e-10 -1.5361063824593010e-12 0.0000000000000000e+00  1.3690331417372822e-10 -2.4192957471349873e-11 0.0000000000000000e+00  -4.6119663263249072e-10 -3.6106139988933028e-11 0.0000000000000000e+00  5.3930965371541279e-10 7.2031954585578390e-12 0.0000000000000000e+00  -1.0641400352498003e-09 -2.0014088839067083e-11 0.0000000000000000e+00  3.0009790139498332e-10 -7.9559158276121672e-13 0.0000000000000000e+00  9.7373233382552830e-11 -8.7518527371597518e-12 0.0000000000000000e+00  1.1011795177795696e-09 6.7049248771273991e-12 0.0000000000000000e+00  -6.9425756336101583e-11 -1.8069878605093888e-11 0.0000000000000000e+00  -7.9917205771987594e-10 3.1092173659250944e-12 0.0000000000000000e+00  -1.4849838506266694e-10 -5.1331622509038675e-11 0.0000000000000000e+00  -4.2060003703611963e-10 -1.0772443203648875e-10 0.0000000000000000e+00  -2.4625061804931629e-10 -2.0102808030993771e-10 0.0000000000000000e+00  -3.7965391281872865e-10 -2.4742585724164564e-10 0.0000000000000000e+00  -5.2049435435552786e-11 -2.8177009332217141e-10 0.0000000000000000e+00  3.0031681975990292e-10 -2.7851018249203083e-11 0.0000000000000000e+00  4.4802461729081431e-10 -6.2561555012058614e-11 0.0000000000000000e+00  -1.1174534650159320e-09 6.4749831078764345e-12 0.0000000000000000e+00  6.3171438800275617e-10 5.5839862385758102e-13 0.0000000000000000e+00  1.1059344607715384e-09 -8.8327626520271777e-12 0.0000000000000000e+00  -3.3888829726464356e-10 1.8360517737298634e-10 0.0000000000000000e+00  -1.1391641959385110e-10 5.9483905275571991e-12 0.0000000000000000e+00  -1.2467414586042953e-09 -1.0879647776388048e-11 0.0000000000000000e+00  5.3793364331024043e-10 -1.0951081924257471e-11 0.0000000000000000e+00  3.7775957741424368e-10 2.4180861541931533e-10 0.0000000000000000e+00  9.5904916218829813e-10 4.4020401677839815e-11 0.0000000000000000e+00  9.4095497929977258e-10 8.8613845153227358e-11 0.0000000000000000e+00  -8.2279006857009135e-10 -1.0185305867972752e-10 0.0000000000000000e+00  1.2282804928872902e-09 1.6270550730161442e-11 0.0000000000000000e+00  1.0805484592577366e-09 -1.3803807878528426e-11 0.0000000000000000e+00  -4.2328586888825158e-10 -2.0538137743691638e-13 0.0000000000000000e+00  -4.4054426621480558e-11 -1.6848877659813236e-11 0.0000000000000000e+00  -1.1129294757243862e-10 -5.5343809823153963e-11 0.0000000000000000e+00  1.2619019555181878e-09 -1.6199200028295487e-11 0.0000000000000000e+00  -1.2724233789180978e-09 -3.2769758408900924e-12 0.0000000000000000e+00  -6.7480055881643441e-10 4.0246214685979062e-11 0.0000000000000000e+00  3.8676479473024790e-10 2.4253747891750261e-10 0.0000000000000000e+00  -1.6208378884873711e-10 4.2932381756481626e-11 0.0000000000000000e+00  -7.9628002416425949e-10 -1.4909702550751880e-10 0.0000000000000000e+00  -5.1470744372094878e-10 -4.9309699633464335e-12 0.0000000000000000e+00  4.0467283153850228e-10 4.3957465536629357e-11 0.0000000000000000e+00  1.0251233591151071e-10 -1.9453414061921710e-10 0.0000000000000000e+00  -6.8048533736935919e-10 1.7003517906940335e-12 0.0000000000000000e+00  3.1124425121347728e-10 1.2189961122161536e-11 0.0000000000000000e+00  1.2061780127055381e-09 -1.1152646130684873e-11 0.0000000000000000e+00  7.3049417992670884e-10 -5.3336162850888935e-11 0.0000000000000000e+00  -6.7939757363599230e-10 1.5058980951637839e-10 0.0000000000000000e+00  1.2577660876932603e-10 -2.0537752520107398e-12 0.0000000000000000e+00  -5.7740539315894725e-10 1.1591787721556842e-10 0.0000000000000000e+00  3.6731469799522485e-10 -2.5159407612218451e-10 0.0000000000000000e+00  -1.1642977165635052e-09 -3.0026770020339888e-12 0.0000000000000000e+00  -1.2069445841410879e-09 1.6412982488122763e-11 0.0000000000000000e+00  6.6179418357226649e-10 1.8435491131709525e-10 0.0000000000000000e+00  3.1878997550384164e-10 -1.2091363898569911e-11 0.0000000000000000e+00  2.8131395417552589e-10 1.8648066947686465e-11 0.0000000000000000e+00  4.5688138641335214e-11 -2.9317935259620024e-11 0.0000000000000000e+00  1.0689182466981027e-09 7.0778968926891215e-12 0.0000000000000000e+00  -6.3116498285623240e-10 1.6029631950042582e-10 0.0000000000000000e+00  -1.2760021031549295e-09 5.5650290897931071e-12 0.0000000000000000e+00  2.3034893153362457e-10 -9.0829333866717488e-11 0.0000000000000000e+00  1.3811859666572264e-10 -4.3743717158195057e-11 0.0000000000000000e+00  8.3853195955393680e-10 7.3401766504669847e-13 0.0000000000000000e+00  -1.0059876487171910e-09 -6.2869605420818479e-11 0.0000000000000000e+00  6.0809466496414333e-13 4.2300566666785828e-14 0.0000000000000000e+00  -6.4219070414531209e-10 -7.5040737890603664e-11 0.0000000000000000e+00  2.5360966951501340e-10 1.3868683110520225e-10 0.0000000000000000e+00  6.4118600492440513e-10 -4.3246560777965431e-11 0.0000000000000000e+00  -4.6690045917583921e-10 9.0672015728574895e-11 0.0000000000000000e+00  5.7190626146432964e-11 -5.8838166056232153e-11 0.0000000000000000e+00  1.2823324653396533e-10 -1.4750437988051035e-10 0.0000000000000000e+00  7.2337823206583448e-10 2.0029491543163817e-11 0.0000000000000000e+00  -3.5739565873585707e-10 8.6387898206843970e-11 0.0000000000000000e+00  -6.0115460368685952e-11 -6.9318464102171609e-11 0.0000000000000000e+00  5.1186065650351569e-10 5.5313175561191399e-11 0.0000000000000000e+00  -5.6875639358871518e-10 -1.8838920059304274e-11 0.0000000000000000e+00  -9.0147358074224758e-10 1.4857131009112654e-11 0.0000000000000000e+00  2.0249103021135778e-10 4.8051842648715344e-11 0.0000000000000000e+00  -6.3385916752718982e-10 -1.6854632074682086e-11 0.0000000000000000e+00  -6.5668474893943680e-11 4.0534389266147160e-11 0.0000000000000000e+00  6.7525659300956132e-10 -7.3269708944381102e-11 0.0000000000000000e+00  -3.2093721377383904e-10 -1.2922943471786293e-10 0.0000000000000000e+00  4.0303503303430960e-11 1.3410276565484823e-10 0.0000000000000000e+00  3.3461929337020407e-10 -1.4398297367566839e-11 0.0000000000000000e+00  9.2801811660712554e-10 1.4835947792067969e-11 0.0000000000000000e+00  5.3602121739442133e-10 9.6899400589086702e-11 0.0000000000000000e+00  7.9124774767423689e-10 8.3240546374841334e-11 0.0000000000000000e+00  3.4445491823328571e-10 -1.2421905726796483e-10 0.0000000000000000e+00  -3.1524955051263100e-10 1.6777471060588604e-10 0.0000000000000000e+00  5.1651096961592990e-10 -2.0338056574195920e-11 0.0000000000000000e+00  -3.3135746478784261e-10 -1.5606393400366913e-10 0.0000000000000000e+00  5.4584668607338211e-11 1.5398842674559577e-10 0.0000000000000000e+00  -7.8318510487750486e-10 8.4221228254548593e-11 0.0000000000000000e+00  2.7233842322979800e-10 -1.3891587867078682e-10 0.0000000000000000e+00  -2.3142658562336169e-10 2.7581168040794117e-11 0.0000000000000000e+00  -9.4092136353533928e-10 -2.6379687036617793e-11 0.0000000000000000e+00  -9.7873846445457774e-10 -2.3227177917746801e-11 0.0000000000000000e+00  -8.2864272681584175e-10 3.1492153246270779e-11 0.0000000000000000e+00  7.6750221175133534e-10 -9.6822219582772733e-11 0.0000000000000000e+00  -8.1034275365869291e-10 2.9418298419471832e-11 0.0000000000000000e+00  1.0049874772260819e-09 -1.6150818095830448e-11 0.0000000000000000e+00  -3.0950098657740045e-10 -6.5634795301293422e-11 0.0000000000000000e+00  4.9277807755789199e-10 1.3540307281429240e-10 0.0000000000000000e+00  4.9986515635118834e-10 1.7941009154971334e-11 0.0000000000000000e+00  2.6689245448782711e-10 5.9127299208475343e-11 0.0000000000000000e+00  </DataArray> 
</PointData> 
</Piece>
</UnstructuredGrid>
</VTKFile>