<?xml version="1.0"?>
<VTKFile type="UnstructuredGrid"  version="0.1"  >
<UnstructuredGrid>
<Piece  NumberOfPoints="201" NumberOfCells="657">
<Points>
<DataArray  type="Float64"  NumberOfComponents="3"  format="ascii">-0.06801229471385659 0.3748379063386293 5367.432998537076  -0.4273593474910514 0.5967953253088908 -5367.672497375959  305.7920121430607 0.7308871721882326 -5100.765278338152  579.2295604063696 0.88255791356596 -4329.092665197961  792.4489237567676 0.09356428563064495 -3136.642101317329  926.5434948627521 -0.08387009092517199 -1645.157352394633  972.6188012104485 -0.1677083371844035 -0.1293047058077892  926.6911717365301 -0.1292150610900632 1645.177533564163  792.5901474234912 0.4275370121634006 3136.261487810533  579.6723040113546 0.5033363700746885 4329.203989358318  306.2725533780805 0.5308110265079879 5100.737633931492  387.8435908558029 -770.84745727633 -4658.952001990384  385.2559041334299 598.9952146884253 4775.000441892048  928.6837757034846 -709.8634888979575 -788.8664329416861  674.8976799371957 -758.6853752747326 3562.727786969688  847.6222831886636 712.6416706343142 2240.814134948103  843.9886654767807 712.2254065327684 -2280.26335260306  432.6879042618025 691.6161819052802 -4596.549980331763  149.5933191127332 -685.7032753956764 5102.374172110042  670.116363280583 -699.2898850063593 -3638.627901631091  470.2978893049062 -1367.807721923589 -3765.397803881548  695.0470756787205 -1356.141719041363 -2586.994729339169  481.2731162962696 -1935.403831414332 -2488.1868508995  674.4892380089018 -1830.811314652139 -1223.157702314493  427.4987290159529 -2318.351514908452 -1040.488024186528  605.1857118633436 -2086.380520997839 262.7970203967724  320.8769250842248 -2477.775764086109 474.9101330006275  463.0349402143372 -2146.252543806587 1801.528718522645  167.8611161172709 -2399.833060016726 1917.784212652942  296.4611213701066 -1942.473670197845 3170.308748414146  -11.4494973947197 -2085.117865935016 3177.689239387905  702.8228931643267 -1692.291466168573 1517.706759763397  670.3763420055366 699.6134038627116 3638.693643913116  681.5315797489159 1364.016841635427 2676.151944542779  821.3210496780245 1319.009960154633 1208.8060549516  110.7444518422238 -1535.100506999799 4254.36263833745  403.3662493906069 -1350.959292261909 4007.269051957534  470.2107262940424 1288.801660430039 3882.378894165409  455.3193808456942 1902.532813824835 2716.728864783015  930.4102789192071 -692.2186323183678 788.7540718278788  826.7616180479361 -1428.826042105904 91.27319918589174  849.1375342953301 -713.2395885342902 -2219.037631069201  149.2421888892388 686.6973579304723 -5102.711299317832  663.7548618058017 681.4617721172011 -3688.838171021218  676.3222600699208 1355.907250779032 -2730.302059573948  208.0178061156797 -2325.833264130585 -2160.240312883152  -145.7425824467395 -2429.326055652814 1815.536859756611  201.2531466967621 -1392.163151812006 -4368.188036561244  815.7029858848585 1334.471754185412 -1249.420842970571  616.7566386212064 1920.620516415565 -1506.462044795265  439.0516411098478 1851.712191706673 -2923.761723662983  348.8520527013404 2321.797923281721 -1626.452144074964  153.9501822019786 2163.699590907905 -2847.359608263898  45.41408665643294 2512.204729844017 -1476.822514976701  -158.170074567438 2229.688153231059 -2628.007956676253  -261.5148302015482 2471.545211157811 -1113.242508607466  -457.6830775763946 2106.00578406034 -2011.560340244367  -50.36794574435791 2620.449573978005 98.43071809727549  -319.3376243180722 -2009.921185012054 2928.049089888647  -441.5572005230044 -2243.087766142807 1447.625435567272  -537.0490999340253 2200.545781445369 -543.1353619449993  -703.3459281700871 1721.315144434224 -1376.682352580054  -748.0423096619501 1722.319674719222 123.1321902051067  -870.0135343185991 1137.417413102703 -859.2826578400131  -881.0651445253515 1080.166060721686 801.5065432408242  -775.537967406905 1069.735141915441 -2450.608541001562  -719.19944744807 1587.53941448248 1728.079597596427  -916.0006491714886 471.0723146022958 -1560.045111956033  -815.4041926617123 881.7700034664057 2358.199678711424  -783.8376971442832 299.4231590062009 -3146.178980556716  -877.0060526425548 -340.9941951608519 -2242.090583812239  -611.8555170496417 1317.373381988386 3208.603913399691  -137.2832719518492 -1056.64751875925 4824.186775305404  -597.8332273433213 -1729.356836333069 2384.144816152973  -706.2155092743197 -455.876734325936 -3595.228973093738  -763.4413382220038 -1079.414280333541 -2543.799379488362  -935.9734477550579 299.6410207042038 1345.729557768615  -333.4862866894251 1724.644324162106 -3564.931877329583  -673.3281174570825 560.9576715534341 3722.441787743246  214.6824179127487 1738.679583174404 3785.848596637482  -904.7534806582155 -893.2432211253096 -902.4287403210125  -574.313646905057 180.9929271140313 -4335.281010231373  -449.1066175876326 992.183954325151 4302.547991641014  -553.8164347307568 -1147.180129667416 -3744.87078256497  -581.5921973071372 -1725.729223400855 -2508.061326164482  -491.8857376726967 1942.839290558343 2406.704512739791  -253.6436791296495 -2535.319718654223 343.9729563531203  -472.04722525634 166.6577230961362 4693.422063873614  -693.4556105706852 -242.1138106523935 3752.348883542064  -337.2448549500902 -1712.943610399715 -3577.49785138477  -339.9648395440624 -2205.542615040405 -2213.677855447681  -289.6452423297135 -1073.04402685198 -4608.111648870212  506.9739640012653 2265.453440521696 -150.6754413373661  -676.1589033840187 -1868.0838818318 945.6807870854502  -807.1626926960397 -1261.009745894342 1653.279082565238  179.7269313069264 2260.208564101881 2482.047104896169  -64.75480541991365 2026.587439681707 3316.119338872759  -22.26402271736606 1513.120012596696 4327.806865641031  -268.5639282394677 636.0176406987229 4986.510833119394  -448.3240284517833 -1397.274454565304 3796.182699953143  235.1604206897916 1699.292498583532 -3826.302400775254  -558.5815301410365 -2099.43388875876 -1165.460948758511  -73.98891830945891 1292.619418745381 -4610.034085837256  -163.2473110251751 551.2136943857404 -5163.518696320655  -111.9599767102243 2441.497385063845 1815.203246138799  -209.5325176837171 -390.2163154500584 5178.769762730336  -72.58541627997057 -2125.839169076033 -3044.513796279866  -451.5348631147746 -630.60069747351 4579.253603692854  -693.3237499370988 -1032.427242955481 3147.213406935634  -856.6085031787898 -500.3051640833465 2359.1705886681  -934.5946614891516 -655.0163846061502 746.7676816725293  -968.3362465740125 -85.4356867751484 -462.1224899800587  -381.4015615482214 1102.61331244457 -4378.646313076943  -576.4790571721597 1230.63659529678 -3526.706707461236  -85.68678357641019 -2460.808265771076 -1749.925657638908  -34.07693664209965 1908.240881525238 -3605.274425390692  399.6817015605952 2304.336476340141 1395.110144030968  844.0018693414886 -681.4464537503204 2321.68888753087  49.38779876351342 -718.8900003394094 -5139.523410918578  159.1600063699116 -2558.657292196978 -823.3398670879182  -303.5230502173926 1648.851267212458 3783.575377385221  932.4216987401398 664.7972929742746 -805.7567659498363  634.6527770382553 1904.557940385728 1372.595717392295  745.0804439767493 1732.682561790295 -60.86303347024221  -753.5775232618613 -1564.376345832062 -1348.150411215752  -332.9495851882342 2469.113048645122 415.7650485929652  -554.556649557342 2131.108618599566 976.3878209947604  -54.22656415603011 -1569.332632634228 -4231.601920961042  -231.3857901092998 -283.1892718146059 -5182.791771805895  -485.8756038392798 -458.4178977152514 -4565.334863046539  232.6352019447236 2550.70388233726 -273.1364606288311  27.40146434621102 -2606.392507007254 594.0147154632288  548.3441160139377 -1644.469349559923 2907.692040734412  934.0416992170193 673.6904364005555 715.0390919657768  433.228193452653 -685.3737235285718 4598.849356396841  -831.2726508567872 -1408.17641163932 131.4699211466209  -178.5740736406288 -1699.169265575314 3910.208469292504  483.0097808694529 1248.990611688987 -3890.12120338812  -837.8645093913223 209.01082894419 2716.291201570456  224.3986969307217 -1927.309635286187 -3365.848058936026  243.781187406752 1230.543229079539 4514.617473215046  143.5734143372094 2534.521575049911 1123.515346727774  -616.8043224245761 1637.344633992988 -2506.853551723786  821.6574006774329 -1269.727371342817 -1392.800778057911  -15.11861467467921 662.3457977907894 5180.699401038393  746.2191683783918 -1228.006804985184 2422.644321214153  -946.472820766399 630.5660070015603 -121.0230538054086  -516.6281631970891 -2251.911019242311 51.48754085365422  -317.3080870887837 -2452.07545182126 -885.6892247811583  879.1839951569599 1167.246094357531 -37.07247791019339  -222.0787200104353 1262.417397283296 4508.747726867597  275.9732232419065 1145.681535538362 -4556.797382420167  -334.2770278861994 188.0903916629628 -5033.133432640525  -366.3695470357255 2290.300729193347 1697.869759844443  834.9533383179795 -1180.855646577226 1465.133367530712  -68.66680939446316 -2604.650566971315 -536.826785002821  -632.4910268248193 672.045971935521 -3859.952566919935  -434.0495546623687 565.6570471144745 -4668.152031772652  -279.7814100249129 2092.128639873911 2804.342906401973  -697.0403576735266 -1868.365012806157 -298.4534330859115  0.003735464771365892 0.05999715599085838 -0.170087628064675  -311.514444108724 -1039.388851521889 147.5134005660575  468.6190640141842 405.5622579375759 -24.47176989980042  -187.8462044483826 1089.38032874591 1173.023195920848  350.5197141005113 -773.3423709289501 1066.758365383746  -228.3786033846964 112.1679418328379 -2372.530716935705  -481.5087605384859 206.3134473379185 1.898393953053564  92.78558746420225 1232.104554715859 -1018.945796871189  326.4964860073533 -607.1809601434587 -1595.234282972868  -253.756888857342 -114.6529695909555 2300.748641066745  244.4150512850657 914.2559955698802 1855.172539638404  -90.40175570075337 -1041.957300708637 -2016.184222586668  81.06240146038134 -1512.457316283975 9.767237258818112  194.2190425946224 398.1582208852427 -26
[...]
<PointData  Vectors="Velocity"> 
<DataArray  type="Float64"  Name="Velocity"  NumberOfComponents="3" format="ascii">-2.2335387423851727e-09 1.9123851916385873e-08 -5.9950306174978248e-06  -1.9412942254261676e-08 2.6924767916055323e-08 5.9843588974580705e-06  -1.5005150851389284e-07 3.3333017298177336e-08 5.8793782549841872e-06  -3.9914415935400076e-07 4.0844780979788509e-08 5.4422337226317505e-06  -7.7421450878818802e-07 3.8042719122547597e-09 4.3381851656895353e-06  -1.1474620634052817e-06 -4.3802079915495348e-09 2.4525986183505762e-06  -1.2827101045913218e-06 -8.2227814064331574e-09 -5.7547154639959766e-09  -1.1401881468595556e-06 -5.3680464529672304e-09 -2.4514741527802766e-06  -7.6712922330449442e-07 2.1358127516708993e-08 -4.3552982651589648e-06  -3.7805722717165068e-07 2.5053019766271488e-08 -5.4377353098158119e-06  -1.2736593063561603e-07 2.6249964668017515e-08 -5.8806490504126744e-06  -1.7207339477327502e-07 -8.1249505444416407e-07 5.5449928060045611e-06  -1.7218353421635954e-07 6.4182599340398728e-07 -5.6715799856373802e-06  -1.0841272803205164e-06 -1.8716933909545614e-06 1.1906293049735920e-06  -4.8748025458593244e-07 -1.2608126860617639e-06 -4.7139229590771467e-06  -8.4760459405847014e-07 1.6293623557597336e-06 -3.2340385835061299e-06  -8.4965606665811736e-07 1.6088222884087731e-06 3.2741139008766877e-06  -2.0949717234381404e-07 8.0286092445472349e-07 5.5205206703756106e-06  -4.8026213734736966e-08 -5.2291559401376114e-07 -5.8054386295359116e-06  -5.0368366462003359e-07 -1.1730782443005174e-06 4.7911637497999342e-06  -1.7401676176938175e-07 -2.0901357235454039e-06 4.7135341721384523e-06  -4.2968692011742357e-07 -2.7964647675054237e-06 3.5269254733463277e-06  -7.8390580523609605e-08 -3.8273134910332601e-06 3.2230960621343924e-06  -2.7524572441926647e-07 -4.2974728114989063e-06 1.6838699012202155e-06  2.5301621964440831e-08 -5.2271791149876209e-06 1.3569343797551824e-06  -1.2591091743781072e-07 -4.9819545720256539e-06 -3.6196561246489014e-07  7.2275333878436701e-08 -5.6204261559524476e-06 -6.1604905620459009e-07  -7.4727192186103958e-09 -4.5842630258328997e-06 -2.3537123112754817e-06  4.6143438802483599e-08 -4.8782515867032549e-06 -2.4050673907467228e-06  3.7147402770953644e-10 -3.2673621715040650e-06 -3.9225179303013122e-06  3.6127814049218537e-09 -3.4383241474767671e-06 -3.8694741680064411e-06  -3.4760378757595216e-07 -3.9183328860185148e-06 -2.1097344367822704e-06  -4.9063781501914545e-07 1.1891822546503074e-06 -4.7880168519748477e-06  -3.9259839882978912e-07 2.7626451858086623e-06 -3.6263009218789070e-06  -6.6168403715669756e-07 3.2340929317183953e-06 -1.7492190872744649e-06  -6.3369855917197685e-09 -1.8845644121579058e-06 -5.0277978841691414e-06  -1.2471662155004762e-07 -1.8826382340609110e-06 -4.9261739982253254e-06  -1.7433098060538467e-07 1.9240662917327988e-06 -4.8383130640182932e-06  -6.5349266393744917e-08 3.6254856619903308e-06 -3.4904407065017562e-06  -1.0886298112663375e-06 -1.8087704698190987e-06 -1.1912527064439906e-06  -6.5747432271008083e-07 -3.6418567527232751e-06 -1.4061371031012346e-07  -8.6742191855486719e-07 -1.6289251679327814e-06 3.1922105957852861e-06  -6.5109634249207523e-08 5.7018115343096665e-07 5.7897061356824059e-06  -4.8423586099563590e-07 1.1278568772679936e-06 4.8408628942671830e-06  -3.8995500805789881e-07 2.7089962806186770e-06 3.6795780754825141e-06  3.6541319038517409e-08 -4.6211265378909911e-06 2.6988375076868341e-06  -3.5762630555443730e-08 -4.9830315984354326e-06 -2.2760706401627776e-06  -4.5984515318747444e-08 -1.6308107471608198e-06 5.1638749773628257e-06  -6.5781696756298098e-07 3.2588456124161527e-06 1.7981161248481610e-06  -1.7752705820927884e-07 4.3329939045577862e-06 2.0407979311517153e-06  -7.6012569219334356e-08 3.3708320124566745e-06 3.7121712622479129e-06  4.3821764962272678e-08 4.9412745104844907e-06 2.0897961401332136e-06  1.0604313547098141e-08 3.8516212499899579e-06 3.5032138587757694e-06  1.9229819605465056e-08 5.2760226081238996e-06 1.8516804909887394e-06  -2.7725325870278423e-08 4.1275872312405413e-06 3.2475898075070229e-06  -7.0795478014886425e-08 5.3891937075730832e-06 1.4202977268577706e-06  2.3938944257311016e-08 4.3813273825632340e-06 2.6095623165735083e-06  -1.6971124255274071e-08 5.8461570640429193e-06 -1.3190896587190305e-07  6.2749451148590769e-09 -3.5677656178781831e-06 -3.6612356558296400e-06  -1.5585522969855975e-08 -4.9205452467233777e-06 -1.8909210485952790e-06  4.1244511153859938e-08 5.1323990247803020e-06 7.2409344682911897e-07  3.3715223077812424e-07 4.0280131117181374e-06 1.9200658925139050e-06  4.1235595033641586e-07 4.2583018109353395e-06 -1.7476223005179892e-07  8.3353299812665376e-07 2.8740096575576625e-06 1.2605530868020234e-06  8.8594000116561538e-07 2.7548296685891821e-06 -1.1874995952432162e-06  6.1797006685940344e-07 2.3124553588985490e-06 3.4241463397263757e-06  4.0499465410367680e-07 3.6375710830471843e-06 -2.4105427999312305e-06  1.0891463981035496e-06 1.1722677619320145e-06 2.3123480606178103e-06  7.5012741894044963e-07 1.9617909666844692e-06 -3.3557041454524778e-06  7.3292624424671372e-07 6.0428406777851909e-07 4.3509363633394578e-06  9.7306046518646467e-07 -7.9513924539971567e-07 3.2600669915931519e-06  3.1485035002757160e-07 2.3754335797147240e-06 -4.2170952617439773e-06  4.0908016683415891e-08 -9.7607725382367011e-07 -5.5788762369203350e-06  2.2060034556816644e-07 -3.5611111366082516e-06 -3.1797331322524871e-06  5.7188570397477811e-07 -7.8228741263340349e-07 4.7932845977407721e-06  5.9735399702003760e-07 -2.2888102718325708e-06 3.5348798054889948e-06  1.1637510033834819e-06 7.7728246837824657e-07 -2.0231460583836688e-06  4.1467625388881999e-08 2.6971311321775269e-06 4.3915777474239200e-06  5.0549380748383110e-07 9.4178781068299619e-07 -4.8880745789635023e-06  -1.9675298540031929e-08 2.5368791484954981e-06 -4.5760234973463263e-06  9.8336347469173225e-07 -2.3202038397846086e-06 1.3377337465797866e-06  3.6291836128216548e-07 2.5862806643286232e-07 5.4289930310625634e-06  2.0741204069982200e-07 1.3191617797702138e-06 -5.2626240495860677e-06  2.6107870579285648e-07 -1.7823698246808054e-06 4.7716228831351300e-06  1.9428803370288153e-07 -3.4939410112642700e-06 3.3130840299668742e-06  8.3943101770920759e-08 3.9056048276760062e-06 -3.1218985823572318e-06  -7.3573231709800624e-08 -5.7267144217789284e-06 -4.4025139293738305e-07  2.5977582810704280e-07 2.0462633990741222e-07 -5.6719656578278836e-06  5.7276612692970653e-07 -3.5794316180320547e-07 -4.9699405772765187e-06  4.1982270094208876e-08 -2.6509679455060126e-06 4.4102169432235005e-06  -3.2758430433790930e-08 -4.4139215264527787e-06 2.8041883036529250e-06  7.9540357581139241e-08 -1.1304528415509532e-06 5.4254036251576503e-06  -4.0112119365203227e-09 5.2888283438349171e-06 1.9969603374992846e-07  2.6699335527732651e-07 -4.4578176965391176e-06 -1.3106647764337746e-06  6.4843033417343279e-07 -2.9925023688731756e-06 -2.3682358515312889e-06  2.8201789413778591e-08 4.2910135537897443e-06 -3.0858871651555215e-06  -3.6318272922581662e-09 3.3052529610576879e-06 -4.0302506192939237e-06  6.9966923113777660e-09 1.8345263090874888e-06 -5.0779287436341836e-06  1.1005623988712813e-07 6.2275805248412758e-07 -5.7607148625408446e-06  1.6424791901684629e-07 -2.0978674837565975e-06 -4.7314129952464493e-06  -3.2780367199672024e-08 2.4531696053666139e-06 4.6260685235785149e-06  9.1017890526134303e-08 -4.8406390121711493e-06 1.5569336645654561e-06  3.6153309897574845e-09 1.3650505487113271e-06 5.3368549610598006e-06  3.9804668130822324e-08 4.4290413794327871e-07 5.8492137651124763e-06  -3.0491813335232734e-08 5.0090566376867482e-06 -2.2776577857672965e-06  8.2203295398824771e-08 -3.1577427019763148e-07 -5.8988714339262750e-06  -1.4145207700116492e-08 -3.6352724934867782e-06 3.7123937816414170e-06  2.3349703670682370e-07 -6.7546551392040895e-07 -5.5404436290726146e-06  4.8999413629277893e-07 -1.9132403039835051e-06 -4.2229348498649658e-06  9.1437531533119191e-07 -1.1201728923673201e-06 -3.4049050081081337e-06  1.1254013798699370e-06 -1.7270584939000448e-06 -1.1231408167097943e-06  1.2816191309719348e-06 -2.3677896586955546e-07 7.0438349191994281e-07  1.2668396552862628e-07 1.3660492487839932e-06 5.2731442858362307e-06  2.8456388602595803e-07 2.0379668252859025e-06 4.5511461026952151e-06  -2.9454957055124918e-08 -5.0830859636270971e-06 2.1817628351792300e-06  -2.5446917338245191e-09 2.8735016205889628e-06 4.3307161498382779e-06  4.0182711139219169e-08 5.0307187414706201e-06 -1.8121345371602635e-06  -8.3511607742482740e-07 -1.5415741379568377e-06 -3.3420968139358244e-06  -2.7063719441571335e-08 -5.1820166490668807e-07 5.7955173169282765e-06  4.9485474162132802e-08 -5.6712035600273280e-06 1.0398569508230768e-06  4.9830052778669990e-08 2.4469501289941062e-06 -4.6233416141750129e-06  -1.0998534720679766e-06 1.7184417313507339e-06 1.2133959579627173e-06  -2.0021041541667548e-07 4.3626123446445483e-06 -1.8744047312856478e-06  -4.0303371050384351e-07 4.2803491151630664e-06 8.9394535128599104e-08  4.6325791647611546e-07 -3.7428211706393357e-06 1.8980047077617669e-06  -7.4012926298659501e-08 5.5872470188338977e-06 -5.4340205158455616e-07  6.2775509705805435e-08 4.9152770940132649e-06 -1.3128282639825740e-06  9.3007817818099139e-10 -1.9254375936494262e-06 4.9876557116203098e-06  7.6633692167539852e-08 -2.0041404473963180e-07 5.8991797925313062e-06  2.5173086597427583e-07 -5.0626877639564226e-07 5.5522188867672832e-06  7.3686190028823634e-08 5.7401705802103048e-06 3.4291251651350394e-07  1.4905520814075124e-08 -5.7880164468030525e-06 -7.5095541139057952e-07  -1.8306166989369744e-07 -3.0695402454579503e-06 -3.7837255567037106e-06  -1.1031651443500801e-06 1.7594142497378487e-06 -1.0816080101872066e-06  -1.9527684866519870e-07 -7.3726144086632953e-07 -5.5371952570588562e-06  6.7814127077524215e-07 -3.6222628866805053e-06 -1.9409040891349294e-07  2.2444168075279963e-08 -2.3412639787635705e-06 -4.6837732480397583e-06  -1.9995859775295849e-07 1.8407532570136103e-06 4.8605561457758086e-06  8.8484043971139442e-07 4.6633736609166157e-07 -3.8681892297869786e-06  -7.7498757739267989e-09 -3.0953940309765881e-06 4.1103260002974557e-06  -5.5444953441745701e-08 1.4157900577328807e-06 -5.3202075650213187e-06  5.0730985657935387e-08 5.4866851053272774e-06 -1.4188547150225923e-06  2.4259600177515157e-07 3.3229039555736074e-06 3.3351897956949094e-06  -6.8494480042449309e-07 -3.0905629096962481e-06 1.9997830936589966e-06  9.3513640180133260e-09 5.7214222449175383e-07 -5.8476796764147822e-06  -5.2724412284743367e-07 -2.6265508029751035e-06 -3.3613313663826772e-06  1.1443586315575437e-06 1.6709365779430392e-06 1.8338039890770698e-07  1.3642247249691818e-08 -5.2962330756872334e-06 -6.9152971507976655e-08  -7.4661251774714882e-08 -5.4901897804853551e-06 1.1312342236357071e-06  -8.3851497549889468e-07 3.0105091248308278e-06 5.3648406373505659e-08  5.5014522903499538e-08 1.4501151349061863e-06 -5.2983190581160012e-06  -8.4836360977736896e-08 1.2796075284486212e-06 5.3656541771102814e-06  1.3334949839115600e-07 2.0780121364007831e-07 5.8354539954738264e-06  -3.2190778604547355e-08 4.8623285343579269e-06 -2.1865577496856845e-06  -7.2908960126508882e-07 -2.8711423466195318e-06 -2.1267217438175305e-06  -2.5315214677827281e-08 -5.8043026548409844e-06 6.7607471687943720e-07  4.1313609819297331e-07 1.0478012488180005e-06 4.9844292668656805e-06  1.9896750894528943e-07 6.2825018229284502e-07 5.5907158240639115e-06  -3.3256184595777827e-09 3.8143246478827208e-06 -3.4948840716295451e-06  2.8593781177392980e-07 -4.5761567101515039e-06 4.0969356440291798e-07  -1.9350981954836103e-10 2.7660886306839305e-09 -7.7762272630833041e-09  3.4130913039196243e-07 -2.9213015073108344e-06 -2.1731179700933297e-07  -6.3080190861755838e-07 1.1536729029266880e-06 3.0000534493937624e-08  1.9670194257489197e-07 2.9167212056031854e-06 -1.7364058125492656e-06  -4.1240648514799633e-07 -2.1239090836714038e-06 -1.6005925541788526e-06  2.6761401275017086e-07 2.6014188674546942e-07 3.4448077543357075e-06  6.7090850336733038e-07 5.8333758762514596e-07 -5.9499094373443397e-09  -9.1102815924663195e-08 3.2905932105672372e-06 1.4904010985183650e-06  -3.9292904006981481e-07 -1.6257828592001953e-06 2.3607372134402241e-06  3.1529312703647030e-07 -2.7344720063048300e-07 -3.3574740289961284e-06  -2.5157978243249082e-07 2.3284229483890137e-06 -2.7010280067958292e-06  8.5680756020323113e-08 -2.5872253285075709e-06 2.8895473985951895e-06  -6.7574112934410460e-08 -4.1007319274590341e-06 -1.8345923790574800e-08  -2.1856462673353950e-07 9.2109468525249464e-07 3.7691628935800806e-06  7.6664445612153044e-08 -2.8833418526023740e-06 -2.8620266493950332e-06  -1.8436087536623753e-07 -2.9870260109101131e-07 -4.0147613811271232e-06  3.3325145319030948e-07 3.0716999953709096e-06 1.4625451964166077e-06  5.8778243134149988e-07 -1.4599402235990057e-06 2.2095764460506469e-06  -6.0994947723297704e-07 1.8335210152211337e-07 -2.8057381580621496e-06  6.5496409206401899e-08 1.5221449481518355e-06 -4.1532505941754187e-06  -6.7475191553449387e-08 4.2214707637476159e-06 -1.0928015176468613e-06  -4.4073698636245915e-07 2.4383186871011287e-06 2.3522516313753028e-06  -3.7860068218144161e-07 3.5993474665933915e-06 -2.1513322192119839e-07  5.6500030931808835e-07 1.5669184672724934e-06 -2.6535678616572477e-06  -7.6310588033583627e-07 -1.4340752740272870e-06 4.3342459113858894e-07  9.2500453357611702e-08 2.3495193693446115e-06 3.6819064130334126e-06  7.0984140539354625e-07 -1.5073355069809334e-06 -1.7429050141989190e-06  -7.0040672859245132e-07 2.4829476485729515e-07 2.6058416616248769e-06  -3.8306413175878026e-07 -3.5626674693191936e-06 6.4717770381586132e-07  6.3184011068569599e-07 1.2388467791665204e-06 2.6414221553605496e-06  -1.2545699219256217e-07 -1.0527367211581154e-06 4.4344979287537286e-06  1.1997675926875049e-07 -4.2801608919114056e-06 1.2570564123800210e-06  1.0564182279365581e-07 -4.4521713225324621e-06 -1.1736977298504920e-06  -1.4323235221087153e-07 -3.7693894433795468e-06 -2.3093926549108121e-06  4.4037684387683656e-07 3.4913341014466467e-06 -9.9995940249515880e-07  -1.3380757990980323e-07 -3.6861645419144783e-06 2.3675218412492713e-06  7.3454607729012189e-08 4.5715854833049576e-06 5.5701478148246569e-07  2.9852881069147194e-07 -1.4078904814890819e-06 4.1406716114299976e-06  -6.1586040491277260e-07 2.2416396533062609e-06 -1.9967417640070826e-06  -8.1600860624103496e-08 2.2738738073218551e-06 -6.4175574300402437e-07  -2.6893533495470136e-07 1.2140847748005880e-06 1.4273132850402765e-06  </DataArray> 
</PointData> 
</Piece>
</UnstructuredGrid>
</VTKFile>