<?xml version="1.0"?>
<VTKFile type="UnstructuredGrid"  version="0.1"  >
<UnstructuredGrid>
<Piece  NumberOfPoints="201" NumberOfCells="657">
<Points>
<DataArray  type="Float64"  NumberOfComponents="3"  format="ascii">-0.06801229471385659 0.3748379063386293 5367.432998537076  -0.4273593474910514 0.5967953253088908 -5367.672497375959  305.7920121430607 0.7308871721882326 -5100.765278338152  579.2295604063696 0.88255791356596 -4329.092665197961  792.4489237567676 0.09356428563064495 -3136.642101317329  926.5434948627521 -0.08387009092517199 -1645.157352394633  972.6188012104485 -0.1677083371844035 -0.1293047058077892  926.6911717365301 -0.1292150610900632 1645.177533564163  792.5901474234912 0.4275370121634006 3136.261487810533  579.6723040113546 0.5033363700746885 4329.203989358318  306.2725533780805 0.5308110265079879 5100.737633931492  387.8435908558029 -770.84745727633 -4658.952001990384  385.2559041334299 598.9952146884253 4775.000441892048  928.6837757034846 -709.8634888979575 -788.8664329416861  674.8976799371957 -758.6853752747326 3562.727786969688  847.6222831886636 712.6416706343142 2240.814134948103  843.9886654767807 712.2254065327684 -2280.26335260306  432.6879042618025 691.6161819052802 -4596.549980331763  149.5933191127332 -685.7032753956764 5102.374172110042  670.116363280583 -699.2898850063593 -3638.627901631091  470.2978893049062 -1367.807721923589 -3765.397803881548  695.0470756787205 -1356.141719041363 -2586.994729339169  481.2731162962696 -1935.403831414332 -2488.1868508995  674.4892380089018 -1830.811314652139 -1223.157702314493  427.4987290159529 -2318.351514908452 -1040.488024186528  605.1857118633436 -2086.380520997839 262.7970203967724  320.8769250842248 -2477.775764086109 474.9101330006275  463.0349402143372 -2146.252543806587 1801.528718522645  167.8611161172709 -2399.833060016726 1917.784212652942  296.4611213701066 -1942.473670197845 3170.308748414146  -11.4494973947197 -2085.117865935016 3177.689239387905  702.8228931643267 -1692.291466168573 1517.706759763397  670.3763420055366 699.6134038627116 3638.693643913116  681.5315797489159 1364.016841635427 2676.151944542779  821.3210496780245 1319.009960154633 1208.8060549516  110.7444518422238 -1535.100506999799 4254.36263833745  403.3662493906069 -1350.959292261909 4007.269051957534  470.2107262940424 1288.801660430039 3882.378894165409  455.3193808456942 1902.532813824835 2716.728864783015  930.4102789192071 -692.2186323183678 788.7540718278788  826.7616180479361 -1428.826042105904 91.27319918589174  849.1375342953301 -713.2395885342902 -2219.037631069201  149.2421888892388 686.6973579304723 -5102.711299317832  663.7548618058017 681.4617721172011 -3688.838171021218  676.3222600699208 1355.907250779032 -2730.302059573948  208.0178061156797 -2325.833264130585 -2160.240312883152  -145.7425824467395 -2429.326055652814 1815.536859756611  201.2531466967621 -1392.163151812006 -4368.188036561244  815.7029858848585 1334.471754185412 -1249.420842970571  616.7566386212064 1920.620516415565 -1506.462044795265  439.0516411098478 1851.712191706673 -2923.761723662983  348.8520527013404 2321.797923281721 -1626.452144074964  153.9501822019786 2163.699590907905 -2847.359608263898  45.41408665643294 2512.204729844017 -1476.822514976701  -158.170074567438 2229.688153231059 -2628.007956676253  -261.5148302015482 2471.545211157811 -1113.242508607466  -457.6830775763946 2106.00578406034 -2011.560340244367  -50.36794574435791 2620.449573978005 98.43071809727549  -319.3376243180722 -2009.921185012054 2928.049089888647  -441.5572005230044 -2243.087766142807 1447.625435567272  -537.0490999340253 2200.545781445369 -543.1353619449993  -703.3459281700871 1721.315144434224 -1376.682352580054  -748.0423096619501 1722.319674719222 123.1321902051067  -870.0135343185991 1137.417413102703 -859.2826578400131  -881.0651445253515 1080.166060721686 801.5065432408242  -775.537967406905 1069.735141915441 -2450.608541001562  -719.19944744807 1587.53941448248 1728.079597596427  -916.0006491714886 471.0723146022958 -1560.045111956033  -815.4041926617123 881.7700034664057 2358.199678711424  -783.8376971442832 299.4231590062009 -3146.178980556716  -877.0060526425548 -340.9941951608519 -2242.090583812239  -611.8555170496417 1317.373381988386 3208.603913399691  -137.2832719518492 -1056.64751875925 4824.186775305404  -597.8332273433213 -1729.356836333069 2384.144816152973  -706.2155092743197 -455.876734325936 -3595.228973093738  -763.4413382220038 -1079.414280333541 -2543.799379488362  -935.9734477550579 299.6410207042038 1345.729557768615  -333.4862866894251 1724.644324162106 -3564.931877329583  -673.3281174570825 560.9576715534341 3722.441787743246  214.6824179127487 1738.679583174404 3785.848596637482  -904.7534806582155 -893.2432211253096 -902.4287403210125  -574.313646905057 180.9929271140313 -4335.281010231373  -449.1066175876326 992.183954325151 4302.547991641014  -553.8164347307568 -1147.180129667416 -3744.87078256497  -581.5921973071372 -1725.729223400855 -2508.061326164482  -491.8857376726967 1942.839290558343 2406.704512739791  -253.6436791296495 -2535.319718654223 343.9729563531203  -472.04722525634 166.6577230961362 4693.422063873614  -693.4556105706852 -242.1138106523935 3752.348883542064  -337.2448549500902 -1712.943610399715 -3577.49785138477  -339.9648395440624 -2205.542615040405 -2213.677855447681  -289.6452423297135 -1073.04402685198 -4608.111648870212  506.9739640012653 2265.453440521696 -150.6754413373661  -676.1589033840187 -1868.0838818318 945.6807870854502  -807.1626926960397 -1261.009745894342 1653.279082565238  179.7269313069264 2260.208564101881 2482.047104896169  -64.75480541991365 2026.587439681707 3316.119338872759  -22.26402271736606 1513.120012596696 4327.806865641031  -268.5639282394677 636.0176406987229 4986.510833119394  -448.3240284517833 -1397.274454565304 3796.182699953143  235.1604206897916 1699.292498583532 -3826.302400775254  -558.5815301410365 -2099.43388875876 -1165.460948758511  -73.98891830945891 1292.619418745381 -4610.034085837256  -163.2473110251751 551.2136943857404 -5163.518696320655  -111.9599767102243 2441.497385063845 1815.203246138799  -209.5325176837171 -390.2163154500584 5178.769762730336  -72.58541627997057 -2125.839169076033 -3044.513796279866  -451.5348631147746 -630.60069747351 4579.253603692854  -693.3237499370988 -1032.427242955481 3147.213406935634  -856.6085031787898 -500.3051640833465 2359.1705886681  -934.5946614891516 -655.0163846061502 746.7676816725293  -968.3362465740125 -85.4356867751484 -462.1224899800587  -381.4015615482214 1102.61331244457 -4378.646313076943  -576.4790571721597 1230.63659529678 -3526.706707461236  -85.68678357641019 -2460.808265771076 -1749.925657638908  -34.07693664209965 1908.240881525238 -3605.274425390692  399.6817015605952 2304.336476340141 1395.110144030968  844.0018693414886 -681.4464537503204 2321.68888753087  49.38779876351342 -718.8900003394094 -5139.523410918578  159.1600063699116 -2558.657292196978 -823.3398670879182  -303.5230502173926 1648.851267212458 3783.575377385221  932.4216987401398 664.7972929742746 -805.7567659498363  634.6527770382553 1904.557940385728 1372.595717392295  745.0804439767493 1732.682561790295 -60.86303347024221  -753.5775232618613 -1564.376345832062 -1348.150411215752  -332.9495851882342 2469.113048645122 415.7650485929652  -554.556649557342 2131.108618599566 976.3878209947604  -54.22656415603011 -1569.332632634228 -4231.601920961042  -231.3857901092998 -283.1892718146059 -5182.791771805895  -485.8756038392798 -458.4178977152514 -4565.334863046539  232.6352019447236 2550.70388233726 -273.1364606288311  27.40146434621102 -2606.392507007254 594.0147154632288  548.3441160139377 -1644.469349559923 2907.692040734412  934.0416992170193 673.6904364005555 715.0390919657768  433.228193452653 -685.3737235285718 4598.849356396841  -831.2726508567872 -1408.17641163932 131.4699211466209  -178.5740736406288 -1699.169265575314 3910.208469292504  483.0097808694529 1248.990611688987 -3890.12120338812  -837.8645093913223 209.01082894419 2716.291201570456  224.3986969307217 -1927.309635286187 -3365.848058936026  243.781187406752 1230.543229079539 4514.617473215046  143.5734143372094 2534.521575049911 1123.515346727774  -616.8043224245761 1637.344633992988 -2506.853551723786  821.6574006774329 -1269.727371342817 -1392.800778057911  -15.11861467467921 662.3457977907894 5180.699401038393  746.2191683783918 -1228.006804985184 2422.644321214153  -946.472820766399 630.5660070015603 -121.0230538054086  -516.6281631970891 -2251.911019242311 51.48754085365422  -317.3080870887837 -2452.07545182126 -885.6892247811583  879.1839951569599 1167.246094357531 -37.07247791019339  -222.0787200104353 1262.417397283296 4508.747726867597  275.9732232419065 1145.681535538362 -4556.797382420167  -334.2770278861994 188.0903916629628 -5033.133432640525  -366.3695470357255 2290.300729193347 1697.869759844443  834.9533383179795 -1180.855646577226 1465.133367530712  -68.66680939446316 -2604.650566971315 -536.826785002821  -632.4910268248193 672.045971935521 -3859.952566919935  -434.0495546623687 565.6570471144745 -4668.152031772652  -279.7814100249129 2092.128639873911 2804.342906401973  -697.0403576735266 -1868.365012806157 -298.4534330859115  0.003735464771365892 0.05999715599085838 -0.170087628064675  -311.514444108724 -1039.388851521889 147.5134005660575  468.6190640141842 405.5622579375759 -24.47176989980042  -187.8462044483826 1089.38032874591 1173.023195920848  350.5197141005113 -773.3423709289501 1066.758365383746  -228.3786033846964 112.1679418328379 -2372.530716935705  -481.5087605384859 206.3134473379185 1.898393953053564  92.78558746420225 1232.104554715859 -1018.945796871189  326.4964860073533 -607.1809601434587 -1595.234282972868  -253.756888857342 -114.6529695909555 2300.748641066745  244.4150512850657 914.2559955698802 1855.172539638404  -90.40175570075337 -1041.957300708637 -2016.184222586668  81.06240146038134 -1512.457316283975 9.767237258818112  194.2190425946224 398.1582208852427 -26
[...]
<PointData  Vectors="Coriolis"> 
<DataArray  type="Float64"  Name="Coriolis"  NumberOfComponents="3" format="ascii">4.2081520144799900e-12 4.9035801831822637e-13 0.0000000000000000e+00  5.9208434866908268e-12 4.2695077579067226e-12 0.0000000000000000e+00  7.3304219501896749e-12 3.3002819477643200e-11 0.0000000000000000e+00  8.9829357288330839e-12 8.7789332462772233e-11 0.0000000000000000e+00  8.3591229529759619e-13 1.7028423965097142e-10 0.0000000000000000e+00  -9.6403896938560632e-13 2.5237925160992051e-10 0.0000000000000000e+00  -1.8089389220496073e-12 2.8212710041187995e-10 0.0000000000000000e+00  -1.1799246219782322e-12 2.5077893941770199e-10 0.0000000000000000e+00  4.6992080831988517e-12 1.6872525591512749e-10 0.0000000000000000e+00  5.5121205952553026e-12 8.3150753017980664e-11 0.0000000000000000e+00  5.7753668533604746e-12 2.8012720711002868e-11 0.0000000000000000e+00  -1.7871204707194281e-10 3.7847839786359149e-11 0.0000000000000000e+00  1.4117289290900819e-10 3.7870530298319453e-11 0.0000000000000000e+00  -4.1171236584780285e-10 2.3844848973105084e-10 0.0000000000000000e+00  -2.7732436458174433e-10 1.0721851320125384e-10 0.0000000000000000e+00  3.5840136870181771e-10 1.8642553088424185e-10 0.0000000000000000e+00  3.5388187135175501e-10 1.8687729851290325e-10 0.0000000000000000e+00  1.7659045837716479e-10 4.6078601110184391e-11 0.0000000000000000e+00  -1.1501419607838382e-10 1.0562554851126990e-11 0.0000000000000000e+00  -2.5802863584265360e-10 1.1078290095790056e-10 0.0000000000000000e+00  -4.5973497113065760e-10 3.8276384545748464e-11 0.0000000000000000e+00  -6.1510883723351653e-10 9.4508155418487661e-11 0.0000000000000000e+00  -8.4183975771347925e-10 1.7243954695656890e-11 0.0000000000000000e+00  -9.4527134227627196e-10 6.0538540071799331e-11 0.0000000000000000e+00  -1.1497507882552200e-09 -5.5641705400500997e-12 0.0000000000000000e+00  -1.0958245660912462e-09 2.7692725100643682e-11 0.0000000000000000e+00  -1.2362439295401496e-09 -1.5896092167104973e-11 0.0000000000000000e+00  -1.0083353340976010e-09 1.6450017162775623e-12 0.0000000000000000e+00  -1.0729902508719653e-09 -1.0147985504217751e-11 0.0000000000000000e+00  -7.1866611787903720e-10 -7.9644319011096964e-14 0.0000000000000000e+00  -7.5626661239265922e-10 -7.9511204927853836e-13 0.0000000000000000e+00  -8.6187655801455891e-10 7.6453298226952158e-11 0.0000000000000000e+00  2.6157152589762500e-10 1.0791259736364504e-10 0.0000000000000000e+00  6.0766888183005998e-10 8.6350388546282661e-11 0.0000000000000000e+00  7.1138320143676161e-10 1.4553255405584149e-10 0.0000000000000000e+00  -4.1451109104342320e-10 1.3940345708466222e-12 0.0000000000000000e+00  -4.1409052100351634e-10 2.7432161706114842e-11 0.0000000000000000e+00  4.2320747497522951e-10 3.8344215678914126e-11 0.0000000000000000e+00  7.9744450874049025e-10 1.4374975888760129e-11 0.0000000000000000e+00  -3.9787054589162655e-10 2.3943875774145650e-10 0.0000000000000000e+00  -8.0107741598121410e-10 1.4460648226449088e-10 0.0000000000000000e+00  -3.5830514891546554e-10 1.9078522304881902e-10 0.0000000000000000e+00  1.2541096788415418e-10 1.4320807073993068e-11 0.0000000000000000e+00  2.4807927067739903e-10 1.0650550287596425e-10 0.0000000000000000e+00  5.9586587737454423e-10 8.5769752707354044e-11 0.0000000000000000e+00  -1.0164359871517783e-09 -8.0352794128931811e-12 0.0000000000000000e+00  -1.0960373590469625e-09 7.8648272498747457e-12 0.0000000000000000e+00  -3.5870014509919140e-10 1.0115611275827082e-11 0.0000000000000000e+00  7.1682664790928990e-10 1.4468241375247093e-10 0.0000000000000000e+00  9.5307758367595730e-10 3.9046579258042359e-11 0.0000000000000000e+00  7.4142951005625943e-10 1.6721023972718722e-11 0.0000000000000000e+00  1.0868575872067640e-09 -9.6369372367677577e-12 0.0000000000000000e+00  8.4717491315039691e-10 -2.3308972796146421e-12 0.0000000000000000e+00  1.1604823512914349e-09 -4.2289884160632655e-12 0.0000000000000000e+00  9.0787519343250419e-10 6.0971183825970255e-12 0.0000000000000000e+00  1.1853792333154871e-09 1.5570187583194087e-11 0.0000000000000000e+00  9.6369744931334735e-10 -5.2665025044055175e-12 0.0000000000000000e+00  1.2858895758922165e-09 3.7326672219601344e-12 0.0000000000000000e+00  -7.8474208927612641e-10 -1.3828855322930370e-12 0.0000000000000000e+00  -1.0823031182624225e-09 3.4266636072012574e-12 0.0000000000000000e+00  1.1289102468409299e-09 -9.0709997115604818e-12 0.0000000000000000e+00  8.8600193316216792e-10 -7.4153865414930325e-11 0.0000000000000000e+00  9.3666411330757314e-10 -9.0693603028764422e-11 0.0000000000000000e+00  6.3218256081457129e-10 -1.8333021229182699e-10 0.0000000000000000e+00  6.0596831278845877e-10 -1.9485707657224676e-10 0.0000000000000000e+00  5.0864993968743568e-10 -1.3591900136844276e-10 0.0000000000000000e+00  8.0012189098225482e-10 -8.9076255157432498e-11 0.0000000000000000e+00  2.5785945780553926e-10 -2.3955218299610878e-10 0.0000000000000000e+00  4.3152197189195212e-10 -1.6498663570966825e-10 0.0000000000000000e+00  1.3291787195757771e-10 -1.6120247378745495e-10 0.0000000000000000e+00  -1.7490288962088049e-10 -2.1401908260628935e-10 0.0000000000000000e+00  5.2249425498806032e-10 -6.9251508563061983e-11 0.0000000000000000e+00  -2.1468703664956535e-10 -8.9987299776582798e-12 0.0000000000000000e+00  -7.8329158079121273e-10 -4.8521353857627124e-11 0.0000000000000000e+00  -1.7207172661974712e-10 -1.2578261987520325e-10 0.0000000000000000e+00  -5.0344956039065368e-10 -1.3138461966285534e-10 0.0000000000000000e+00  1.7097682041674831e-10 -2.5596159330976942e-10 0.0000000000000000e+00  5.9324058439169637e-10 -9.1226971731750702e-12 0.0000000000000000e+00  2.0715491315996992e-10 -1.1118119524422974e-10 0.0000000000000000e+00  5.5799351113058196e-10 4.3285167527177443e-12 0.0000000000000000e+00  -5.1036796761922646e-10 -2.1628506463694735e-10 0.0000000000000000e+00  5.6885490863849301e-11 -7.9821503867887383e-11 0.0000000000000000e+00  2.9015530589753623e-10 -4.5620808151505517e-11 0.0000000000000000e+00  -3.9204262941807048e-10 -5.7424272393797501e-11 0.0000000000000000e+00  -7.6851773791527812e-10 -4.2733691605842243e-11 0.0000000000000000e+00  8.5906144142101185e-10 -1.8464790395009974e-11 0.0000000000000000e+00  -1.2596207939143630e-09 1.6181487672491296e-11 0.0000000000000000e+00  4.5009991567523768e-11 -5.7136708792459372e-11 0.0000000000000000e+00  -7.8731257556657815e-11 -1.2597718627970785e-10 0.0000000000000000e+00  -5.8308935691810644e-10 -9.2359946653532395e-12 0.0000000000000000e+00  -9.7086327742175499e-10 7.2031964102409049e-12 0.0000000000000000e+00  -2.4864701934395745e-10 -1.7495609085506335e-11 0.0000000000000000e+00  1.1633164284893619e-09 8.8209894853973516e-13 0.0000000000000000e+00  -9.8054083603551815e-10 -5.8722810955669820e-11 0.0000000000000000e+00  -6.5823826540531469e-10 -1.4261857084069215e-10 0.0000000000000000e+00  9.4382472525835209e-10 -6.2019495740306691e-12 0.0000000000000000e+00  7.2699903981176951e-10 7.9768376381591697e-13 0.0000000000000000e+00  4.0350821831767145e-10 -1.5396869702656448e-12 0.0000000000000000e+00  1.3697838647331622e-10 -2.4207452590385760e-11 0.0000000000000000e+00  -4.6143257708949335e-10 -3.6127822552720358e-11 0.0000000000000000e+00  5.3957798932712905e-10 7.2121019661221204e-12 0.0000000000000000e+00  -1.0647364695620959e-09 -2.0018458148230518e-11 0.0000000000000000e+00  3.0024369430882185e-10 -7.9550798409969028e-13 0.0000000000000000e+00  9.7415989822512370e-11 -8.7549800738793984e-12 0.0000000000000000e+00  1.1017622266398796e-09 6.7054967788937041e-12 0.0000000000000000e+00  -6.9452767001435576e-11 -1.8080893159410379e-11 0.0000000000000000e+00  -7.9958924029835965e-10 3.1106809403182423e-12 0.0000000000000000e+00  -1.4856924715850763e-10 -5.1357419674828381e-11 0.0000000000000000e+00  -4.2083261514181071e-10 -1.0777261058083098e-10 0.0000000000000000e+00  -2.4639686160973144e-10 -2.0111222746329449e-10 0.0000000000000000e+00  -3.7989713805118024e-10 -2.4752643902814646e-10 0.0000000000000000e+00  -5.2084423294356897e-11 -2.8188697710240222e-10 0.0000000000000000e+00  3.0046450808684213e-10 -2.7864650841347558e-11 0.0000000000000000e+00  4.4826134831354947e-10 -6.2589550608911740e-11 0.0000000000000000e+00  -1.1180458809955800e-09 6.4781730035847497e-12 0.0000000000000000e+00  6.3203144848318907e-10 5.5972574654453544e-13 0.0000000000000000e+00  1.1065356186820377e-09 -8.8370293270117295e-12 0.0000000000000000e+00  -3.3908893890540063e-10 1.8367879935043426e-10 0.0000000000000000e+00  -1.1398125440092921e-10 5.9527057022976912e-12 0.0000000000000000e+00  -1.2474083823833517e-09 -1.0883406214366705e-11 0.0000000000000000e+00  5.3821378425298317e-10 -1.0962430117411871e-11 0.0000000000000000e+00  3.7800159741033716e-10 2.4190763720216816e-10 0.0000000000000000e+00  9.5959540713100852e-10 4.4034849447756016e-11 0.0000000000000000e+00  9.4151332256434354e-10 8.8643393668077880e-11 0.0000000000000000e+00  -8.2327665468809724e-10 -1.0189004960916987e-10 0.0000000000000000e+00  1.2289465420237609e-09 1.6278233290238983e-11 0.0000000000000000e+00  1.0811530750251571e-09 -1.3807163811851829e-11 0.0000000000000000e+00  -4.2350342671583159e-10 -2.0478983535880995e-13 0.0000000000000000e+00  -4.4082931017606749e-11 -1.6855144235169179e-11 0.0000000000000000e+00  -1.1135716833799348e-10 -5.5367009364839497e-11 0.0000000000000000e+00  1.2625796280130584e-09 -1.6206326554303626e-11 0.0000000000000000e+00  -1.2731006271599852e-09 -3.2781630013609342e-12 0.0000000000000000e+00  -6.7516301949346994e-10 4.0265010203626097e-11 0.0000000000000000e+00  3.8701473822205842e-10 2.4263593707772719e-10 0.0000000000000000e+00  -1.6216125463507037e-10 4.2950229550937508e-11 0.0000000000000000e+00  -7.9676847377168721e-10 -1.4915188429105283e-10 0.0000000000000000e+00  -5.1496468509789738e-10 -4.9385673431842778e-12 0.0000000000000000e+00  4.0487975169401422e-10 4.3981923415349795e-11 0.0000000000000000e+00  1.0257819801478365e-10 -1.9461611815891558e-10 0.0000000000000000e+00  -6.8084175185197533e-10 1.7069250403757599e-12 0.0000000000000000e+00  3.1140681333567021e-10 1.2195437412199458e-11 0.0000000000000000e+00  1.2068215113109941e-09 -1.1157483560139662e-11 0.0000000000000000e+00  7.3089718569682532e-10 -5.3358669239290024e-11 0.0000000000000000e+00  -6.7981157070195624e-10 1.5064949335439571e-10 0.0000000000000000e+00  1.2584471335972221e-10 -2.0575170725289504e-12 0.0000000000000000e+00  -5.7773657927223924e-10 1.1596451578098627e-10 0.0000000000000000e+00  3.6755363611272873e-10 -2.5169618917970029e-10 0.0000000000000000e+00  -1.1649459303151724e-09 -3.0002833883587457e-12 0.0000000000000000e+00  -1.2075973707672997e-09 1.6420564013968708e-11 0.0000000000000000e+00  6.6220909067047146e-10 1.8442610205648616e-10 0.0000000000000000e+00  3.1895698980939296e-10 -1.2102123272358766e-11 0.0000000000000000e+00  2.8145078153519227e-10 1.8660885686156697e-11 0.0000000000000000e+00  4.5704770331191480e-11 -2.9329257911580030e-11 0.0000000000000000e+00  1.0694947641572682e-09 7.0786751617931115e-12 0.0000000000000000e+00  -6.3154699962112929e-10 1.6035871363697581e-10 0.0000000000000000e+00  -1.2766836829710351e-09 5.5678035398151499e-12 0.0000000000000000e+00  2.3046980346918900e-10 -9.0867159946101784e-11 0.0000000000000000e+00  1.3818440060307597e-10 -4.3761971858735129e-11 0.0000000000000000e+00  8.3897603909003740e-10 7.2921971698980705e-13 0.0000000000000000e+00  -1.0065740314754556e-09 -6.2888975639258617e-11 0.0000000000000000e+00  6.0830950963001778e-13 4.2850678427590921e-14 0.0000000000000000e+00  -6.4257874527571570e-10 -7.5067033931591116e-11 0.0000000000000000e+00  2.5376843304162147e-10 1.3873949482698458e-10 0.0000000000000000e+00  6.4156761391820907e-10 -4.3262367458176844e-11 0.0000000000000000e+00  -4.6718202024017637e-10 9.0704420818502919e-11 0.0000000000000000e+00  5.7220125366151988e-11 -5.8858695434827529e-11 0.0000000000000000e+00  1.2831498898418063e-10 -1.4756076474839004e-10 0.0000000000000000e+00  7.2380304422916522e-10 2.0037191354060877e-11 0.0000000000000000e+00  -3.5761206381999715e-10 8.6421125839555022e-11 0.0000000000000000e+00  -6.0146808234676981e-11 -6.9345852383171355e-11 0.0000000000000000e+00  5.1216305683102320e-10 5.5331978835060195e-11 0.0000000000000000e+00  -5.6908637635873921e-10 -1.8844070231794913e-11 0.0000000000000000e+00  -9.0199997472587687e-10 1.4861967721458606e-11 0.0000000000000000e+00  2.0260275516456505e-10 4.8071257452617131e-11 0.0000000000000000e+00  -6.3421694537620438e-10 -1.6861549723925304e-11 0.0000000000000000e+00  -6.5701220537988677e-11 4.0547910108000850e-11 0.0000000000000000e+00  6.7565729368275279e-10 -7.3294618607777291e-11 0.0000000000000000e+00  -3.2113412512284348e-10 -1.2927720353590306e-10 0.0000000000000000e+00  4.0332033357799974e-11 1.3415275070275279e-10 0.0000000000000000e+00  3.3480789846025913e-10 -1.4405692699259085e-11 0.0000000000000000e+00  9.2855425909470988e-10 1.4840149580852029e-11 0.0000000000000000e+00  5.3633686138488615e-10 9.6935705848442049e-11 0.0000000000000000e+00  7.9172072877852977e-10 8.3268694592362140e-11 0.0000000000000000e+00  3.4466463812819870e-10 -1.2426653610933499e-10 0.0000000000000000e+00  -3.1544794709603057e-10 1.6783889441182214e-10 0.0000000000000000e+00  5.1679395808677652e-10 -2.0344256611243277e-11 0.0000000000000000e+00  -3.3156033417332876e-10 -1.5612334579054761e-10 0.0000000000000000e+00  5.4615439605491722e-11 1.5404882022971503e-10 0.0000000000000000e+00  -7.8365206812822024e-10 8.4250540040597619e-11 0.0000000000000000e+00  2.7250030949804791e-10 -1.3896718588674324e-10 0.0000000000000000e+00  -2.3155761614649187e-10 2.7593159707665780e-11 0.0000000000000000e+00  -9.4146244631943477e-10 -2.6386837992999602e-11 0.0000000000000000e+00  -9.7929537332703268e-10 -2.3234237276058663e-11 0.0000000000000000e+00  -8.2911000462559083e-10 3.1502006822875935e-11 0.0000000000000000e+00  7.6796265447377452e-10 -9.6855715764784289e-11 0.0000000000000000e+00  -8.1080541411202664e-10 2.9429565604466468e-11 0.0000000000000000e+00  1.0055629292463810e-09 -1.6154956646721208e-11 0.0000000000000000e+00  -3.0967777590412482e-10 -6.5658153467041874e-11 0.0000000000000000e+00  4.9307967696237301e-10 1.3545261822307645e-10 0.0000000000000000e+00  5.0016912822453115e-10 1.7947178009288045e-11 0.0000000000000000e+00  2.6705504065315147e-10 5.9149827400137139e-11 0.0000000000000000e+00  </DataArray> 
</PointData> 
</Piece>
</UnstructuredGrid>
</VTKFile>