<?xml version="1.0"?>
<VTKFile type="UnstructuredGrid"  version="0.1"  >
<UnstructuredGrid>
<Piece  NumberOfPoints="201" NumberOfCells="657">
<Points>
<DataArray  type="Float64"  NumberOfComponents="3"  format="ascii">-0.06861868140509861 0.3732384888975793 5367.725136777759  -0.4268300162692312 0.5967832543280648 -5367.965072865431  305.793764912183 0.7307299161022019 -5101.054615232614  579.2302856676846 0.8822115428084031 -4329.365329180377  792.4458599751928 0.09391997053385771 -3136.864536460858  926.5358771508445 -0.08337041175782504 -1645.285739677843  972.6087996456058 -0.1673169263872056 -0.1288273839842134  926.6829936755029 -0.1294520222970484 1645.30612853394  792.5864256655152 0.4263099114112058 3136.484533606922  579.6720293197865 0.5018256444986049 4329.475985173452  306.2731557840332 0.5292451877739711 5101.026414299227  387.8445905222894 -770.829708404955 -4659.228543473614  385.2560896780786 598.9810456322832 4775.281612769483  928.6730484737652 -709.8132018261183 -788.9293352033558  674.8941343501148 -758.6563481358389 3562.967947117896  847.6142501160505 712.5997034766252 2240.982380886604  843.9813926135199 712.184768149334 -2280.433645139579  432.6886121653624 691.5994842013313 -4596.825925447856  149.5931813421221 -685.6942370463672 5102.660015310159  670.1141448061506 -699.2619721893881 -3638.871660742348  470.2950211490378 -1367.758155815776 -3765.638627127888  695.038870859961 -1356.070597038144 -2587.178232921967  481.2648088132314 -1935.304989108078 -2488.356020768736  674.4753495083702 -1830.696080515428 -1223.246895455295  427.4873006464932 -2318.209744195264 -1040.560497921703  605.1702979362869 -2086.244805641049 262.8162558282926  320.8671317386233 -2477.621736509094 474.9430969097948  463.0239751825557 -2146.131387355391 1801.653582400953  167.8565989916487 -2399.703652219925 1917.912407050037  296.4562740358337 -1942.392859728286 3170.513188221775  -11.44977200830685 -2085.032556883012 3177.891564009265  702.8093157727633 -1692.187824523199 1517.818288578712  670.3732601758675 699.5846994840464 3638.937208733412  681.5229834482296 1363.946870176525 2676.340539876391  821.3077966485462 1318.923675357196 1208.898298563485  110.7433629768754 -1535.058855500308 4254.617460893503  403.3634826920972 -1350.917006117603 4007.519418945098  470.2073613297268 1288.756209439582 3882.625444195926  455.31127902481 1902.440267420347 2716.911874435099  930.3994241041486 -692.1704931583048 788.8170095669775  826.7468643339996 -1428.727515440678 91.28066939696902  849.1301318137623 -713.1976415598325 -2219.203758719625  149.2431157553085 686.6864996813047 -5102.997216501279  663.7528212206919 681.4359663987932 -3689.084518259049  676.3146919898501 1355.839571590151 -2730.49338033206  208.0132857411525 -2325.711106927181 -2160.383570694912  -145.738966802922 -2429.193313502874 1815.658325665177  201.2528107920418 -1392.126426970204 -4368.448994248843  815.6901457343165 1334.385449794794 -1249.515488984154  616.7434317143354 1920.505467684669 -1506.570108564435  439.0452751962263 1851.627631879865 -2923.955695745234  348.8431686777779 2321.665998705221 -1626.563589490822  153.947667086833 2163.601636505301 -2847.543935862286  45.41287063173523 2512.062357452478 -1476.92178847014  -158.1664629813125 2229.582030251411 -2628.179517788192  -261.5070857329456 2471.398781826289 -1113.318690321415  -457.6729016959046 2105.89083332768 -2011.698543634579  -50.36639995957625 2620.288329752537 98.43790409244707  -319.3325633470812 -2009.831640852402 2928.240815044648  -441.5461587249887 -2242.956061666835 1447.726082895974  -537.0346449012478 2200.406109503533 -543.1739569554995  -703.3319095147613 1721.20829749067 -1376.783832158456  -748.0264362314455 1722.204163058379 123.1415140629453  -870.0007136320692 1137.340711294016 -859.349156708735  -881.0526786569648 1080.092262933759 801.569442485778  -775.5294284371063 1069.676915206834 -2450.786721818691  -719.187557145637 1587.443739212952 1728.206612469668  -915.9915930477058 471.0419606839463 -1560.166253247684  -815.3967618496092 881.7196736530576 2358.374158925499  -783.8334984994633 299.4090942806199 -3146.402185092143  -876.9988894343288 -340.9735908287594 -2242.260167771322  -611.8500737205112 1317.314663688624 3208.821554501803  -137.2837546454076 -1056.628474057166 4824.464065624704  -597.8236770580388 -1729.265949243373 2384.311501349136  -706.21259502669 -455.8580302303226 -3595.472857300846  -763.4330363197132 -1079.356047629741 -2543.982990871048  -935.9648215615902 299.6205197845289 1345.836083454595  -333.4821128879028 1724.579719996521 -3565.158710575185  -673.3265030723394 560.9349659994783 3722.689914052957  214.6798134131107 1738.618595296075 3786.083786277249  -904.7418978433968 -893.1810655864006 -902.4991827294781  -574.3131951624679 180.9877493007209 -4335.553246591799  -449.1061919967902 992.1542031635661 4302.812824864548  -553.8126546812391 -1147.137910727972 -3745.114043678684  -581.582623260009 -1725.639475866623 -2508.234416139024  -491.877106104796 1942.738322237557 2406.868756471311  -253.6358109959862 -2535.162418043073 343.9965606952845  -472.0486524703371 166.6524248439688 4693.703452578598  -693.4546927912002 -242.1062906699919 3752.600563265548  -337.2406550438301 -1712.879210079595 -3577.7251907258  -339.956915512316 -2205.426553827711 -2213.826185218559  -289.6443816319933 -1073.019102776399 -4608.383255557334  506.9596801257551 2265.308785166038 -150.6860830913084  -676.144096612294 -1867.964126957326 945.7502205808606  -807.1513249651905 -1260.931602231448 1653.40344289822  179.7226961835895 2260.096725662896 2482.210403142432  -64.75427035756977 2026.505115093781 3316.329280800648  -22.26438943875426 1513.077935676399 4328.064137732904  -268.5652108893708 636.0043007988678 4986.794972119892  -448.3214450994528 -1397.226270797571 3796.424179769916  235.1587037057861 1699.235121743504 -3826.540099156754  -558.5677114933486 -2099.303604121892 -1165.543632533265  -73.98819693722673 1292.590035718151 -4610.302490050694  -163.2472421477683 551.2055756149058 -5163.806803652329  -111.9573290641188 2441.363370641254 1815.325332169859  -209.5338423146516 -390.2118190338693 5179.05893265991  -72.58373650832614 -2125.746817652079 -3044.708162088229  -451.5355876611769 -630.5871723974184 4579.529773797165  -693.3189670387604 -1032.381234336549 3147.430560843132  -856.6023845354293 -500.2772854666163 2359.347365963054  -934.5839952741708 -654.9702178815794 746.8268403950667  -968.3267949766877 -85.4289952301681 -462.1596399332565  -381.4000574053208 1102.583800685534 -4378.912045265706  -576.4741822586002 1230.588464241938 -3526.940200724687  -85.68416453024663 -2460.671822001455 -1750.042115859419  -34.07605636177647 1908.171480602328 -3605.498630572333  399.6709259720653 2304.200949914561 1395.207170699858  843.9941028737803 -681.4078033707198 2321.862707307578  49.38849938584848 -718.8792408871152 -5139.80920140368  159.1552951176558 -2558.502112851382 -823.3957285998554  -303.5206125348417 1648.792818206946 3783.812754103627  932.4111005957349 664.7516712113478 -805.8206138405147  634.6389051405131 1904.441351671271 1372.695207488361  745.0643637034068 1732.566342682532 -60.86777425017252  -753.5637115103141 -1564.276652068158 -1348.250482523811  -332.939611065182 2468.959760628406 415.7944038124937  -554.5427499616961 2130.975633912336 976.4580052313376  -54.22565880350243 -1569.288378419722 -4231.855418292845  -231.386118796867 -283.1850026594618 -5183.081620668527  -485.8755096084262 -458.4065228909759 -4565.611905019943  232.6278044784251 2550.546091071373 -273.1549148449582  27.40051927188343 -2606.233564588648 594.0550228429503  548.3365294664819 -1644.393250392824 2907.888701988205  934.0308159562799 673.6434456996126 715.0962963132127  433.2279200445981 -685.3590288332256 4599.125358883226  -831.2580899588634 -1408.078725945049 131.4802218246835  -178.57298615399 -1699.114892097282 3910.448321560674  483.0074029604722 1248.948347555778 -3890.368995862193  -837.8600196183169 208.9987612534726 2716.490813731389  224.3960746079874 -1927.232665205056 -3366.061434607065  243.7801811260497 1230.51149573321 4514.884723375278  143.5689128282682 2534.371939202342 1123.591837028712  -616.7947107300156 1637.260036246904 -2507.027971282866  821.6454984418798 -1269.645283992289 -1392.906041041116  -15.11910802606685 662.3341325262465 5180.986346984054  746.2102545635335 -1227.940633561505 2422.819203421755  -946.4616511072101 630.5212301795708 -121.0326935636354  -516.6139380149084 -2251.766411590557 51.4911321028021  -317.2986335350758 -2451.925622407083 -885.7498768814423  879.1701504845364 1167.164983224004 -37.07527739548369  -222.078712793609 1262.384823998553 4509.014107472934  275.9733015480236 1145.654223537686 -4557.066930201386  -334.2774599060593 188.0869726738817 -5033.421361644656  -366.3605334021873 2290.170822775137 1697.986651344992  834.9413382444284 -1180.780209416611 1465.245370411571  -68.6645611015819 -2604.491037847826 -536.8632368218176  -632.4885227087606 672.0221977543343 -3860.205530160218  -434.0493231292999 565.6441530335143 -4668.430817191044  -279.776750042921 2092.030945403857 2804.526458813561  -697.0245005018025 -1868.240841308042 -298.4753215274454  0.003751101650488003 0.06021254634171057 -0.1695041936378787  -311.5100593224763 -1039.312431439097 147.5250038484183  468.6141658681482 405.5323338692705 -24.47329046888646  -187.8439117934494 1089.305057170025 1173.115874713439  350.5155015829783 -773.28765572673 1066.843768502211  -228.3767298606102 112.1619189973585 -2372.711602615305  -481.5040427833167 206.2983397463951 1.898748897222768  92.78434764187617 1232.019544711722 -1019.025165298098  326.4936705907473 -607.1394275031566 -1595.359546623406  -253.755590044394 -114.6467727165839 2300.925079782789  244.4121254381395 914.1969691686882 1855.315368182555  -90.40033819517744 -1041.892228048986 -2016.336944035647  81.06093891716947 -1512.349643773772 9.768209116444405  194.2181275456071 398.136
[...]
<PointData  Vectors="Forcing"> 
<DataArray  type="Float64"  Name="Forcing"  NumberOfComponents="3" format="ascii">-2.8234182511922202e-05 -2.8617358106275986e-06 -4.8032618428812788e-05  -2.2770766584421803e-05 -1.4886577843855040e-06 5.2495428579725106e-05  -7.0622362143384646e-05 4.3823839991777804e-07 4.9429142576178359e-05  -1.5826857048832773e-04 3.9279417248112114e-06 4.6200231072491868e-05  -1.4876118533634308e-04 -1.0302255385934865e-06 2.1623064497457047e-05  -2.5876518163737809e-04 7.5310332156751499e-06 1.7237340187861304e-05  -2.8104077151174141e-04 -1.1424409165383752e-06 2.7397590568552908e-06  -2.7810931391052552e-04 -8.2601767449608865e-06 -1.4642189217915026e-05  -1.6847960950728516e-04 1.8557463288518879e-06 -2.4871930866735042e-05  -1.5004888712286739e-04 5.4705947069368310e-07 -4.1778184344445306e-05  -6.9451913583890379e-05 8.8689116370633654e-06 -4.1268906605798984e-05  -9.5004670937998777e-05 1.4407846808244085e-05 4.4765255784488021e-05  -1.0408182368950068e-04 -1.5013765614230563e-05 -5.0403585675552393e-05  -2.3444459537286106e-04 9.4889993298839802e-06 5.7554024726039485e-06  -1.6246716963577693e-04 1.2577774595653066e-05 -3.7698528475006436e-05  -2.0773306383852842e-04 -1.0206314880450500e-05 -2.3878159627230912e-05  -2.1341859360439041e-04 -1.3369243627740493e-05 2.5239519277917168e-05  -1.0902685579405634e-04 -1.2034770593498358e-05 4.8137872773444841e-05  -4.0058362762355421e-05 1.3680383916398431e-05 -4.8481237856193033e-05  -1.7187798387369768e-04 1.6769879824355479e-05 3.7268678914095803e-05  -1.2515471086376858e-04 2.8837565869760824e-05 3.9457775450446387e-05  -1.8990166832247695e-04 3.2742288255398710e-05 2.6207445237079649e-05  -1.3099248149857281e-04 4.1473555240132965e-05 2.3093194494916331e-05  -1.5878103795789828e-04 2.7186220840222476e-05 9.0110113823208186e-06  -1.0314726502495337e-04 3.8348946380409633e-05 1.0835125402910092e-05  -1.4609104418884371e-04 3.5148821027661510e-05 -5.3693338057962619e-06  -9.6023430940654064e-05 4.6509019618300235e-05 -5.8764139790328134e-06  -1.1005861439372248e-04 3.9045039556882214e-05 -1.9067261659860844e-05  -3.5911475039001905e-05 3.7517151967724612e-05 -1.9118772028943337e-05  -5.2612569313889546e-05 1.5368227230579289e-05 -2.1286776833597560e-05  6.9720151368014187e-06 4.2945110171090956e-05 -3.1842649855737119e-05  -1.9072820202796682e-04 4.1216349589938832e-05 -1.7130366226142884e-05  -1.7187348692202837e-04 -1.4612075269925760e-05 -3.3404174005452605e-05  -1.5659417653478080e-04 -2.0072522357301955e-05 -2.3298302059222334e-05  -2.1011874942986118e-04 -1.7136292241159017e-05 -1.5382333154027209e-05  -2.3330497799577433e-05 3.3231125889255855e-05 -4.7465617086109879e-05  -9.9232841677018475e-05 2.5150306907320268e-05 -4.1714325977603384e-05  -1.3881981448727956e-04 -2.9064468516941116e-05 -3.8858157501693755e-05  -1.3284693254802006e-04 -3.7757087698638585e-05 -2.4237602000398501e-05  -2.2479917915583356e-04 8.0754798612902038e-07 -7.4763568829884436e-06  -2.1336267206863477e-04 2.5428651997238854e-05 -2.3459771501363143e-06  -2.2104182176130500e-04 7.8266727128463224e-06 2.3576955312185687e-05  -3.3639536554366774e-05 -2.1325797654054783e-05 5.7455729133031300e-05  -1.6286682072497931e-04 -1.0311130050642628e-05 3.4951814136079805e-05  -1.5916902636846825e-04 -1.9150555036810601e-05 2.4341575256180069e-05  -4.8199446158015735e-05 2.1185538456367393e-05 1.9475218044209389e-05  2.2822856907043413e-05 4.3645948233936107e-05 -1.9696095555463897e-05  -5.2284065098138796e-05 2.6551661432419320e-05 4.3291474713996481e-05  -2.3885848946741741e-04 -2.3894067817213513e-05 1.5322475122820109e-05  -1.5565619189134724e-04 -2.1124164429079100e-05 1.2989416132309662e-05  -1.0682475983819632e-04 -3.5385822595138863e-05 2.8871910553298033e-05  -1.2025495433544299e-04 -4.4018333507191249e-05 1.7677524946050554e-05  -3.7031009811664561e-05 -4.1742009130480824e-05 3.1420811626086462e-05  -1.5730679344506071e-05 -5.1882233050536350e-05 1.7757754825905264e-05  4.2626004287564222e-05 -4.3326533391503205e-05 2.4509930951511337e-05  5.4379936312378740e-05 -2.7345704634963303e-05 8.2112534795264157e-06  1.1692476920336239e-04 -4.3195031573368922e-05 2.2600568638128301e-05  1.0428716673736956e-05 -4.2397184381276246e-05 -1.7912498120590411e-06  7.7806662697856003e-05 3.3626032125095105e-05 -2.6217798276182519e-05  8.3773631173679754e-05 3.1151521493679796e-05 -1.3963747405957669e-05  1.3966611418255378e-04 -3.7101287629207089e-05 5.6745210645512887e-06  1.9995257322542631e-04 -3.1003559288276093e-05 1.4206263871223500e-05  1.4139343642627226e-04 -1.0762519938505571e-05 -3.2778113001297257e-06  2.4524642925116778e-04 -2.4107087284197246e-05 7.6409558500675516e-06  2.5470859711769635e-04 -2.0855926103207159e-05 -1.0140023644808797e-05  1.6774571827420415e-04 -5.2374988047531145e-06 2.0017601567046707e-05  1.9693334413156883e-04 -1.6085526000932731e-05 -1.6032452826682897e-05  2.4857844422217961e-04 -5.0656958356007377e-06 1.6164747795214680e-05  2.0780837239347462e-04 -1.1728694481862971e-05 -2.2910707495885752e-05  2.0847383769656143e-04 1.3050481647798611e-06 2.6760439386809815e-05  2.4685805909384746e-04 3.6279950884666082e-06 1.9974042538790042e-05  1.5690606981636867e-04 -2.3921314528459237e-05 -2.9431738768887529e-05  4.9336085326470515e-05 1.8207194117427289e-05 -4.3100303033939736e-05  1.4677290998834058e-04 3.2880754009864132e-05 -2.4269234713637558e-05  2.1034991615632602e-04 1.0771869236608023e-05 3.6608398710287346e-05  1.9061108340683640e-04 1.3205155212034512e-05 2.6133897585772525e-05  2.5574492242817640e-04 1.9445772568949971e-06 -1.1719141582000946e-05  9.4031796427312901e-05 -3.6204663429706558e-05 3.6102236262293090e-05  1.5107594993456067e-04 -9.9266949921172478e-06 -2.7106040445432388e-05  -6.8834911171506083e-05 -3.7680633327098012e-05 -4.1740861208290564e-05  2.4571610213679267e-04 1.1831350809254780e-05 7.1614290550318160e-06  1.7005507092574809e-04 2.0117725666144718e-06 4.3471062314412437e-05  1.3410033605198868e-04 -1.5787871481153179e-05 -4.4789102823830953e-05  1.2638155630639468e-04 1.6819784928855528e-05 3.7189447484666759e-05  1.4279726793321919e-04 2.7832993186371182e-05 2.9648346850730075e-05  1.4253023279710023e-04 -3.0125668199585236e-05 -2.1538711646234965e-05  7.1641180757028839e-05 3.9946894002242380e-05 -4.9031771373888655e-06  1.2643350172828854e-04 -3.0909124929961234e-06 -4.3025742590430088e-05  2.0292924215113134e-04 1.1800911787167520e-06 -3.6922531937854194e-05  8.4423769337500798e-05 3.6512116362981546e-05 3.7348772215508066e-05  7.1367925147191300e-05 2.3030073406789607e-05 1.8096484342558669e-05  6.0724300526095861e-05 1.6767669512439836e-05 4.4965429542931491e-05  -1.2372621001158386e-04 -2.8725976420543822e-05 -1.9007663577034606e-06  1.7719466780144526e-04 2.8613931413608365e-05 -1.2380267500268179e-05  1.7151976268956815e-04 4.8763951035066055e-06 -1.4061012270660307e-05  -5.7935006678739356e-05 -4.1624270968999320e-05 -2.7699644635563093e-05  7.7196273792973899e-06 -4.2027697969004861e-05 -3.5952255522874199e-05  1.5189915935288549e-07 -2.5232762678410984e-05 -4.5870991313412637e-05  7.9250907061785520e-05 -1.5972982803722393e-05 -5.7366656287843568e-05  1.3243629944708837e-04 2.8314294005753276e-05 -4.2128706244961690e-05  -7.1988179729467409e-05 -3.5708765957359961e-05 4.3386359833054569e-05  1.7199673780317584e-04 4.0083859434050750e-05 1.6485496626254435e-05  2.4248439312234135e-05 -2.2233332780960149e-05 4.1205365174905840e-05  4.5537932433263055e-05 -2.2166063350099693e-05 5.2811623276820820e-05  3.1470669968690696e-05 -5.4403777017286444e-05 -1.9460274262003167e-05  5.8901562675421106e-05 -2.7618523617988631e-06 -5.9269648634757679e-05  2.2097444638347892e-05 3.7479175602348937e-05 3.0577965810824717e-05  1.2574342251589030e-04 6.4980316390592470e-06 -4.5142013848188041e-05  1.5641696180858898e-04 5.2295276318690664e-06 -2.9783142598821195e-05  1.9690053314148196e-04 6.3548643883651812e-06 -1.9594397544851062e-05  2.0744979514159841e-04 8.6417993900508471e-06 -8.1016796319112781e-06  2.7177523674371966e-04 5.6900640682959555e-06 6.4282744143066180e-06  1.0495132418190893e-04 -2.1045003002338994e-05 4.6686119008818357e-05  1.5011811008398509e-04 -2.8034116883410502e-05 3.4500429802366737e-05  9.1257707241755324e-06 5.2200666391982667e-05 2.2718301106668324e-05  2.1918746020866131e-05 -3.4817050723652087e-05 3.8575169228832386e-05  -1.1232913792410051e-04 -4.8072294841097063e-05 -1.4587862964881689e-05  -2.4085937822977441e-04 1.1649364796161884e-05 -2.1166128157038757e-05  -1.6697717981992179e-07 1.0322605685153771e-05 4.6255906350809139e-05  -3.3652936376160809e-05 5.3671290710980620e-05 1.0478622395767288e-05  9.9882144205189053e-05 -2.9625670631692382e-05 -4.1347880256789086e-05  -2.6874293768084886e-04 -1.0321045350081305e-05 9.7305461367112077e-06  -1.5822533465073598e-04 -2.5700734801161471e-05 -1.2872443829297963e-05  -2.1343328076977357e-04 -3.6954875347087816e-05 -4.1072289255853210e-06  1.9487115868328624e-04 2.0175769056315398e-05 1.2299998942999499e-05  1.0579142745261451e-04 -4.7072184124130723e-05 -3.6395906753692983e-06  1.2780023941714262e-04 -1.3815733175670707e-05 -8.0182120824162855e-06  2.3269765399187651e-05 3.5430241392155645e-05 4.5848389310453103e-05  4.4632678673641553e-05 7.1885141732143446e-06 5.2105491491631136e-05  9.6190232028703528e-05 1.0779233221438953e-05 3.6395832114246993e-05  -6.5038781371539462e-05 -5.1734329297366633e-05 4.2409827646355469e-06  -2.7849381539888822e-05 5.4285086613626583e-05 -8.1443762370636668e-06  -1.6408524195174440e-04 2.9983507783502160e-05 -3.0303731670057929e-05  -2.6781408077824592e-04 -1.2834041653783176e-05 -6.3685762184327612e-06  -1.1380585041105908e-04 1.1738774880771165e-05 -4.6152718646544117e-05  2.2344128800463688e-04 1.9126496500872536e-05 -9.9923319038482063e-07  3.5143872265774284e-05 2.2983930478232360e-05 -3.7359545096166913e-05  -1.2110227902587037e-04 -2.3302356545979781e-05 3.7612472799728681e-05  2.3670133549134537e-04 -6.6426074924453138e-07 -2.7068608012359104e-05  -5.3309738867578158e-05 2.1683427917175068e-05 2.7499941574343432e-05  -6.2928644049224262e-05 -2.4088595935906664e-05 -4.9583063961349783e-05  -3.4164843615919194e-05 -2.9034100645487143e-05 -1.1071496286107502e-05  1.4938084246109693e-04 -2.6622327068223694e-05 2.7373379495052618e-05  -2.1893960801198890e-04 2.2857411964759721e-05 8.9192968423018534e-06  -1.4642995973415985e-05 -1.5356255228806890e-05 -5.1251762919453172e-05  -2.0619290943516989e-04 1.8042654236910284e-05 -2.7184931812865559e-05  2.6883120189078000e-04 -1.2010326362747411e-05 1.7229562384383856e-06  1.4023522582464783e-04 4.7384500362324476e-05 -1.4136831865247593e-07  7.6850861982015521e-05 3.5104988665741846e-05 1.1395654688028570e-05  -2.4762229860935916e-04 -2.4114183055923660e-05 -2.4757243640013732e-06  4.9454654679506405e-05 -2.3187447897873333e-06 -3.9861929820375246e-05  -5.2274878344312377e-05 -2.4644506017888764e-05 4.5940622356209296e-05  1.2046622187593408e-04 7.4120705986157303e-06 4.6650959404915541e-05  1.1000986773752517e-04 -4.1591356783503866e-05 -1.4908001947847703e-05  -2.4956753027025454e-04 2.0316044997180247e-05 -1.4883765924614437e-05  2.6656325607996417e-05 4.7710409615005159e-05 2.0595123476892146e-06  1.4578446306141995e-04 -6.9927907157347525e-06 3.4038460399328777e-05  1.2391088091532408e-04 -1.0226721575773633e-05 5.3997976149345368e-05  8.8777267128050861e-05 -4.4287201331841841e-05 -2.8488750661332348e-05  2.1354877317376133e-04 4.4419229039957047e-05 1.2122684735837193e-06  8.2259442328885298e-06 1.3492176470273226e-05 -1.7693728710027841e-06  1.2067650429726506e-04 2.6212009443171758e-05 -3.2778045485884166e-06  -1.9818140917349201e-04 -7.8315988089578228e-06 -1.7666134939841971e-06  8.8851358293868092e-05 -3.3610969292173806e-05 -1.9035237321012590e-05  -1.3500933787770282e-04 2.1476083558616009e-05 -1.4492226477330677e-05  6.7957101867111873e-05 -8.2327645417465996e-06 3.2339609708141718e-05  1.7066723594012605e-04 -6.7762336106866009e-06 -1.9303093055733284e-06  -3.6667663344822485e-05 -4.1815376994754708e-05 1.9084321520040947e-05  -1.2427136888884329e-04 1.9729486079099213e-05 1.8643439434184544e-05  9.4802716423623325e-05 8.7270634879081879e-06 -3.0880729040004699e-05  -1.0580975693773520e-04 -3.3877400354534709e-05 -3.1988395282602243e-05  3.7826560647484099e-05 2.2855584422292546e-05 2.2933137676036518e-05  -2.8067521490484988e-05 3.1027204320279723e-05 1.3558211566275175e-06  -7.9024389407923083e-05 -1.7530774303479329e-05 4.1787983176733676e-05  3.5645767498980021e-05 2.3793913068672940e-05 -2.6811994431319375e-05  -5.5444223096700083e-05 1.4629691342075423e-05 -4.0576711367206507e-05  1.0693798015934012e-04 -2.6311239171274602e-05 1.2139385607824771e-05  1.7194254299039368e-04 1.8976114100904285e-05 1.4177977053021129e-05  -1.6595048279146083e-04 1.0493942032933950e-06 -2.5701058612107504e-05  2.3051490434357249e-05 -2.6548642602212853e-05 -4.4222974366628591e-05  -4.3843984240182777e-05 -5.2582929929283635e-05 -1.5745220044369305e-05  -1.5307612978892571e-04 -3.2391218586102041e-05 2.4451900494677123e-05  -1.3561886360786654e-04 -3.8349947080660575e-05 -1.4143923424479313e-07  1.7874690692855729e-04 -1.4555844715330692e-05 -2.8051780098998395e-05  -2.2996732021060703e-04 1.5182264049398958e-05 3.1422521586304388e-06  3.6084596945786017e-05 -3.8475905500466417e-05 3.9207246538333049e-05  2.0749900661102050e-04 1.6473717557904462e-05 -1.6723137814541357e-05  -1.9693797452212614e-04 -5.7973482625726691e-06 2.3310136377517361e-05  -1.5859500815188339e-04 4.1715234767885589e-05 4.9705670372255251e-06  1.9217863519069427e-04 -1.2235720722075857e-05 2.3881573957989799e-05  -5.0054353379574550e-05 1.3610227586331122e-05 3.9258643853196740e-05  7.6720179107442647e-05 5.0888651435815872e-05 1.6028916820833034e-05  6.7538461560646152e-05 5.2618716656644615e-05 -1.5274758180694527e-05  -8.0931262433035415e-05 4.6269556785367825e-05 -2.1963394764008012e-05  1.6754127482563062e-04 -3.3958157828515410e-05 -4.3260859898644402e-06  -7.0103458888833809e-05 4.3190966123278531e-05 2.8071158442924270e-05  5.7415507997052767e-05 -5.0434744193205024e-05 4.0008826531399050e-06  1.1585743153013461e-04 1.8966868091365489e-05 3.9263773399043985e-05  -2.0679031098958393e-04 -2.6548201825251827e-05 -1.8178941799355484e-05  -2.8053518936059438e-05 -1.7017465225103124e-05 -1.5176477794190946e-05  -6.9788092580654287e-05 -7.4524262931221104e-06 1.9699172633294980e-05  </DataArray> 
</PointData> 
</Piece>
</UnstructuredGrid>
</VTKFile>