<?xml version="1.0"?>
<VTKFile type="UnstructuredGrid"  version="0.1"  >
<UnstructuredGrid>
<Piece  NumberOfPoints="201" NumberOfCells="657">
<Points>
<DataArray  type="Float64"  NumberOfComponents="3"  format="ascii">-0.06801229517948834 0.3748379065456185 5367.432998414371  -0.4273593472631453 0.596795326660479 -5367.672497254346  305.7920121318483 0.7308871732557882 -5100.7652782207  579.2295603686886 0.8825579129263971 -4329.092665094346  792.4489236776832 0.09356427897754839 -3136.642101239416  926.5434947420067 -0.08387010210828182 -1645.157352352833  972.6188010738178 -0.1677083501898149 -0.1293047057872811  926.6911716158899 -0.1292150728326208 1645.177533522574  792.5901473440031 0.4275370059210185 3136.261487732189  579.6723039748402 0.503336367678507 4329.203989254366  306.2725533671483 0.5308110264381997 5100.737633813353  387.8435908616029 -770.8474573282139 -4658.952001884131  385.2559041014852 598.9952147261879 4775.000441780981  928.6837756205614 -709.8634890155889 -788.8664329221665  674.8976799139631 -758.685375355572 3562.72778688483  847.6222830620484 712.6416707191125 2240.814134892089  843.9886653509276 712.2254066170349 -2280.263352546299  432.6879042230019 691.6161819529711 -4596.549980225655  149.5933191236523 -685.7032754303958 5102.374171994616  670.1163632557364 -699.2898850812658 -3638.627901544256  470.2978893288081 -1367.807722050877 -3765.397803798248  695.0470756815789 -1356.1417192096 -2586.994729280035  481.2731163478499 -1935.403831637172 -2488.186850848022  674.4892380409433 -1830.811314901342 -1223.157702288197  427.4987290905093 -2318.35151520391 -1040.488024166388  605.1857119163603 -2086.380521282308 262.7970203912558  320.8769251693802 -2477.77576440032 474.9101329916232  463.0349402783571 -2146.252544069724 1801.528718486631  167.8611161968287 -2399.833060291778 1917.78421261696  296.4611214250265 -1942.473670389276 3170.308748349772  -11.44949733076893 -2085.117866133244 3177.689239324854  702.8228931843231 -1692.291466398317 1517.706759729939  670.3763419275075 699.6134039280829 3638.693643825193  681.5315796422905 1364.016841788348 2676.151944480356  821.3210495331313 1319.009960328187 1208.806054922453  110.7444518818146 -1535.100507114347 4254.36263824626  403.3662494163034 -1350.959292377767 4007.269051869128  470.2107262307391 1288.801660541048 3882.378894077468  455.3193807588324 1902.532814027995 2716.728864725282  930.410278834568 -692.2186324327636 788.7540718082897  826.7616180319449 -1428.826042320752 91.27319918364067  849.1375342345556 -713.2395886373957 -2219.037631014684  149.2421888697188 686.697357966342 -5102.711299203298  663.7548617299321 681.461772179998 -3688.838170932324  676.322259965133 1355.907250929611 -2730.302059510475  208.0178061916209 -2325.833264392153 -2160.240312842161  -145.7425823612582 -2429.326055929727 1815.536859722307  201.2531467288105 -1392.163151911728 -4368.188036466659  815.7029857401066 1334.471754360797 -1249.420842940545  616.7566385047942 1920.620516652931 -1506.462044762389  439.0516410276034 1851.712191896929 -2923.761723600845  348.8520526074286 2321.797923554452 -1626.452144042873  153.9501821292965 2163.699591126364 -2847.359608207641  45.41408656961805 2512.204730136894 -1476.822514949424  -158.1700746379259 2229.688153467054 -2628.007956625511  -261.5148302856548 2471.545211459691 -1113.242508586787  -457.6830776374133 2106.005784312705 -2011.560340204036  -50.3679458364285 2620.44957430043 98.43071809543471  -319.3376242422809 -2009.921185214381 2928.049089828457  -441.5572004223663 -2243.087766412991 1447.625435537855  -537.0490999979176 2200.545781737356 -543.1353619341132  -703.3459281925695 1721.315144669876 -1376.682352549605  -748.0423096776499 1722.319674966977 123.1321902023822  -870.013534275833 1137.417413276341 -859.282657819376  -881.0651444759528 1080.166060888556 801.5065432215597  -775.537967382345 1069.735142057129 -2450.608540943583  -719.1994474607197 1587.539414696878 1728.079597557693  -916.0006490785019 471.0723146805936 -1560.045111916884  -815.4041926187894 881.7700035880803 2358.199678654185  -783.8376970806684 299.4231590488549 -3146.178980478982  -877.0060525229866 -340.9941951970156 -2242.090583755754  -611.8555170600744 1317.373382132067 3208.603913327198  -137.283271923034 -1056.647518820649 4824.186775197338  -597.8332272386127 -1729.356836531183 2384.144816099955  -706.2155091965159 -455.8767343673478 -3595.228973005825  -763.4413381048214 -1079.414280458206 -2543.79937942712  -935.9734476470544 299.6410207601844 1345.729557734735  -333.4862867336366 1724.644324322695 -3564.931877254952  -673.3281174262555 560.9576716137706 3722.441787653868  214.6824178563596 1738.679583321575 3785.848596557459  -904.7534805032295 -893.2432212453625 -902.4287402984636  -574.3136468746686 180.9929271327381 -4335.281010128271  -449.1066175966316 992.1839544069754 4302.547991543184  -553.8164346593511 -1147.180129769578 -3744.870782478149  -581.5921972061681 -1725.729223595112 -2508.061326108771  -491.8857377238256 1942.839290785297 2406.704512690053  -253.6436790320064 -2535.319718966971 343.9729563465852  -472.0472252372783 166.6577231097434 4693.422063762986  -693.4556105045305 -242.1138106698098 3752.348883449871  -337.2448548852403 -1712.94361055247 -3577.497851308048  -339.9648394570295 -2205.542615285775 -2213.677855403339  -289.6452422922214 -1073.044026920165 -4608.111648766708  506.9739638893649 2265.453440809294 -150.6754413342644  -676.1589032554905 -1868.083882074061 945.6807870643153  -807.1626925587434 -1261.009746055822 1653.279082525386  179.7269312284376 2260.208564342708 2482.04710484766  -64.75480548059141 2026.587439872849 3316.11933880614  -22.26402275589342 1513.12001270615 4327.806865548524  -268.5639282454794 636.0176407378617 4986.510833005437  -448.3240283859378 -1397.274454687541 3796.182699867858  235.1604206331207 1699.292498726932 -3826.302400694146  -558.5815300260932 -2099.433889023009 -1165.460948733901  -73.9889183393109 1292.619418829215 -4610.034085737562  -163.2473110324452 551.2136944145738 -5163.518696204422  -111.9599767924096 2441.497385344767 1815.203246105242  -209.532517667677 -390.2163154710223 5178.769762611345  -72.58541621234751 -2125.839169283471 -3044.513796219543  -451.5348630751761 -630.6006975142408 4579.253603585667  -693.3237498410488 -1032.427243062131 3147.213406860464  -856.6085030583148 -500.3051641396701 2359.170588608821  -934.5946613338373 -655.0163846922032 746.7676816535673  -968.3362464341202 -85.43568677551767 -462.1224899683186  -381.4015615652312 1102.613312529835 -4378.646312979289  -576.4790571812194 1230.636595421748 -3526.706707381417  -85.68678349077511 -2460.808266053373 -1749.925657606306  -34.07693669738563 1908.240881692955 -3605.274425317376  399.6817014623154 2304.336476616358 1395.110144003346  844.0018692818004 -681.4464538489666 2321.688887473648  49.38779877734505 -718.8900003729633 -5139.52341080357  159.1600064595109 -2558.657292511848 -823.3398670729041  -303.5230502586526 1648.851267358398 3783.575377305098  932.4216985860015 664.7972930603107 -805.7567659293728  634.6527769189155 1904.557940624042 1372.595717362225  745.0804438361117 1732.682562021179 -60.863033468772  -753.5775231269455 -1564.376346034657 -1348.150411184367  -332.9495852724843 2469.113048957948 415.7650485852103  -554.5566496166726 2131.108618880201 976.3878209750496  -54.22656411245117 -1569.332632749245 -4231.601920870969  -231.3857900950109 -283.1892718275352 -5182.791771687407  -485.8756038005679 -458.417897744575 -4565.334862939229  232.6352018479228 2550.703882651238 -273.1364606238491  27.40146443890414 -2606.392507326419 594.0147154523756  548.3441160460941 -1644.469349742855 2907.692040671402  934.0416990616651 673.6904364886069 715.039091947715  433.2281934525882 -685.373723576721 4598.849356290631  -831.2726507034107 -1408.176411832737 131.469921143342  -178.5740735874741 -1699.169265713049 3910.208469209699  483.0097808056267 1248.990611795683 -3890.121203299821  -837.8645093089508 209.0108289792782 2716.291201502361  224.3986969853655 -1927.309635467029 -3365.848058867515  243.7811873678191 1230.543229164007 4514.617473114898  143.5734142465507 2534.521575351851 1123.515346707145  -616.8043224517185 1637.344634189819 -2506.853551669139  821.657400653841 -1269.727371527645 -1392.800778025281  -15.11861468854062 662.3457978267204 5180.699400920988  746.2191683673293 -1228.006805144679 2422.644321157541  -946.4728206739094 630.5660071085997 -121.0230538023725  -516.6281630836446 -2251.911019530016 51.48754085249926  -317.3080869908609 -2452.075452121466 -885.6892247642631  879.1839949993824 1167.246094516496 -37.07247790927676  -222.0787200366857 1262.417397371556 4508.747726768789  275.9732232033207 1145.681535615527 -4556.79738231892  -334.2770278783978 188.0903916769155 -5033.133432524778  -366.3695471086001 2290.300729469455 1697.869759811899  834.9533382865103 -1180.855646750352 1465.133367495908  -68.66680930081172 -2604.650567290083 -536.8267849930809  -632.4910268047337 672.0459720026173 -3859.952566828813  -434.0495546579121 565.6570471551355 -4668.152031665215  -279.7814100873105 2092.128640093841 2804.342906346079  -697.0403575406268 -1868.365013053444 -298.4534330795114  0.00373546410316246 0.05999715629994911 -0.1700876280971629  -311.5144440195043 -1039.388851684392 147.5134005625505  468.6190639266681 405.5622579961336 -24.47176989925807  -187.8462044782454 1089.380328917886 1173.023195893853  350.5197140932954 -773.342371057621 1066.758365358564  -228.3786033617016 112.1679418519443 -2372.530716878965  -481.5087604793717 206.3134473802925 1.898393952937835  92.78558739561991 1232.104554904618 -1018.945796847894  326.4964859953111 -607.1809602432901 -1595.234282935215  -253.756888820068 -114.6529696038422 2300.748641011599  244.415051214343 914.2559957021602 1855.172539594951  -90.40175564348877 -1041.957300858592 -2016.184222540303  81.06240152249096 -1512.457316519805 9.7672372584782  194.2190425544856 398.1582209
[...]
<PointData  Vectors="Self-Gravity"> 
<DataArray  type="Float64"  Name="Self-Gravity"  NumberOfComponents="3" format="ascii">-2.8230897548764877e-05 -2.8699075306405088e-06 -4.8032775516418170e-05  -2.2761808329035455e-05 -1.5022259563483960e-06 5.2495984069184638e-05  -7.8014817217768556e-05 4.2098107190594141e-07 4.9429734212724456e-05  -1.7227951847020580e-04 3.9068157028542590e-06 4.6203097053772677e-05  -1.6793951943260086e-04 -1.0324130491824635e-06 2.1625458932614419e-05  -2.8119248875924406e-04 7.5316232378390983e-06 1.7239306074453758e-05  -3.0458533255289637e-04 -1.1383479271226801e-06 2.7400237765641497e-06  -3.0053967576778120e-04 -8.2558859812908515e-06 -1.4643597002159634e-05  -1.8766021879606368e-04 1.8455778628056674e-06 -2.4874549280741001e-05  -1.6407109420059126e-04 5.3525522410158824e-07 -4.1780846910695528e-05  -7.6854674732985175e-05 8.8558890714743707e-06 -4.1269333942485170e-05  -1.0438645265463739e-04 3.3027776698389761e-05 4.4769278196264281e-05  -1.1339859750216912e-04 -2.9481152517977951e-05 -5.0406036819787180e-05  -2.5692049693351490e-04 2.6613018202887925e-05 5.7561712321947615e-06  -1.7879438574499294e-04 3.0894023189746773e-05 -3.7701566337839489e-05  -2.2824523423714893e-04 -2.7403119669697656e-05 -2.3880651807395210e-05  -2.3384218586750206e-04 -3.0555674513731823e-05 2.5242145223728486e-05  -1.1949285681191248e-04 -2.8738955924792134e-05 4.8141255493318747e-05  -4.3677712722952754e-05 3.0245777477575446e-05 -4.8483441201583931e-05  -1.8808977278581199e-04 3.3651024695170632e-05 3.7271916358597953e-05  -1.3653101632497318e-04 6.1864889039517043e-05 3.9462781165499754e-05  -2.0671645741283603e-04 6.5472079902831597e-05 2.6211195603223936e-05  -1.4263250788472989e-04 8.8190317863772542e-05 2.3097818600296512e-05  -1.7509325027753074e-04 7.1364133675091954e-05 9.0124964336187218e-06  -1.1348334182905669e-04 9.4298770932488377e-05 1.0837279313453195e-05  -1.6072381592832194e-04 8.5492420961902124e-05 -5.3704992920971420e-06  -1.0378218389335882e-04 1.0630781012308126e-04 -5.8778048624343466e-06  -1.2125063736279728e-04 9.0842969141118982e-05 -1.9070598591333712e-05  -3.9969016294807222e-05 9.5446139808306731e-05 -1.9123242945560153e-05  -5.9780947220841382e-05 6.2269410220591989e-05 -2.1290865340207724e-05  7.2488521265324393e-06 9.3292586594660081e-05 -3.1849633759273278e-05  -2.0772758358916118e-04 8.2050975279152457e-05 -1.7133206012197946e-05  -1.8809127098780740e-04 -3.1501192870325839e-05 -3.3407109412471054e-05  -1.7308038755848451e-04 -5.2994705634036324e-05 -2.3301456007356288e-05  -2.2999033925994125e-04 -4.8960909612290152e-05 -1.5384420238382474e-05  -2.6007997718562641e-05 7.0307532969673796e-05 -4.7472129830238637e-05  -1.0898792858708485e-04 5.7773656473918653e-05 -4.1718757406647237e-05  -1.5019328081467329e-04 -6.0183515918465613e-05 -3.8862466026515434e-05  -1.4386056311249811e-04 -8.3683203108317686e-05 -2.4242008705561038e-05  -2.4731482384118900e-04 1.7507532642977695e-05 -7.4770482013332655e-06  -2.3336294977188853e-04 5.9899021223222185e-05 -2.3462435454408751e-06  -2.4158890279053308e-04 2.5037354987287891e-05 2.3579387643253650e-05  -3.7248247368131438e-05 -3.7913961534400476e-05 5.7457529494737460e-05  -1.7892367383843443e-04 -2.6763339803884640e-05 3.4954735218480333e-05  -1.7552950949403730e-04 -5.1877803611854386e-05 2.4344943154994892e-05  -5.3228559667609240e-05 7.7330734657006162e-05 1.9479224067538874e-05  2.6347664575119803e-05 1.0228671193193772e-04 -1.9701197734720209e-05  -5.7151616765137276e-05 6.0175427317592002e-05 4.3295918329118781e-05  -2.5859416093803369e-04 -5.6091027530412908e-05 1.5324480829872128e-05  -1.7057276819682125e-04 -6.7473566862841100e-05 1.2991366310788681e-05  -1.1744462741845578e-04 -8.0088503021266916e-05 2.8876893209196720e-05  -1.2869331373530988e-04 -1.0005880045496705e-04 1.7681699961203987e-05  -4.0757152468603365e-05 -9.3982623246208761e-05 3.1427776257388320e-05  -1.6831773215440590e-05 -1.1252318123249374e-04 1.7762146778353686e-05  4.6451923284058134e-05 -9.7156355710193359e-05 2.4515740231814960e-05  6.0701232046898685e-05 -8.6997720798099058e-05 8.2131574892294221e-06  1.2799235470383109e-04 -9.4026456151520470e-05 2.2604768750251054e-05  1.1644072005776437e-05 -1.0564265564090870e-04 -1.7915356216787178e-06  8.5532958731230100e-05 8.2151205062102817e-05 -2.6223083615416717e-05  9.4449089266294853e-05 8.5286196046179002e-05 -1.3966349065125031e-05  1.5265113315209494e-04 -9.0203380343403342e-05 5.6757328273556322e-06  2.1696489972612801e-04 -7.2538388101338328e-05 1.4208409123706327e-05  1.5948678304644759e-04 -5.2320474159629380e-05 -3.2784505258672741e-06  2.6629814857596413e-04 -5.1546678713330998e-05 7.6419453360892838e-06  2.7602902919254471e-04 -4.6914399941741033e-05 -1.0141307360535515e-05  1.8650694547981856e-04 -3.1054597370343646e-05 2.0019535720845529e-05  2.1432688305937501e-04 -5.4394574051281826e-05 -1.6034527081211694e-05  2.7074951137069306e-04 -1.6430469904884244e-05 1.6166326317633268e-05  2.2753914909260062e-04 -3.3007352068080138e-05 -2.2913309270358603e-05  2.2744097833344291e-04 -5.9225233202534902e-06 2.6762939456688341e-05  2.6808381738674869e-04 1.1856436494654691e-05 1.9976032781232874e-05  1.7170499238877788e-04 -5.5722362903242016e-05 -2.9435152609859556e-05  5.2656733960099469e-05 4.3732284604007605e-05 -4.3103356166247405e-05  1.6123523338641834e-04 7.4620571704149340e-05 -2.4273295965626213e-05  2.2743577608223361e-04 2.1776683685576820e-05 3.6611157727668253e-05  2.0908251311899708e-04 3.9256229857351866e-05 2.6136696976108875e-05  2.7839978710393225e-04 -5.2848256868905908e-06 -1.1720415608771478e-05  1.0209648906151784e-04 -7.7848304557323294e-05 3.6107799121729128e-05  1.6736596461052196e-04 -2.3469193237296192e-05 -2.7108981601524759e-05  -7.4029806948024561e-05 -7.9669020715466139e-05 -4.1748092197867072e-05  2.6761187260597517e-04 3.3380766967524967e-05 7.1621924997418067e-06  1.8394597995960140e-04 -2.3589968094107449e-06 4.3473720601214667e-05  1.4496515850003484e-04 -3.9748442361315357e-05 -4.4793371861326470e-05  1.3977690834765375e-04 4.4519084545376076e-05 3.7192901686143928e-05  1.5686396662632925e-04 6.9486197369940411e-05 2.9652353471375000e-05  1.5442598568892404e-04 -7.7020725052887796e-05 -2.1542931323285701e-05  7.7776060211710423e-05 1.0113603155856716e-04 -4.9043672220615385e-06  1.3784857170850531e-04 -7.1155127906198705e-06 -4.3027793612244280e-05  2.1970504894707065e-04 7.0259628588179440e-06 -3.6925026268623158e-05  9.2582290782987575e-05 7.7873024578148237e-05 3.7354666726885461e-05  7.9589633933768882e-05 7.6269935761815187e-05 1.8100562726394158e-05  6.7729718987982705e-05 4.2687148646353195e-05 4.4969685887153777e-05  -1.3598440280528391e-04 -8.3394814980740847e-05 -1.9011823589322680e-06  1.9354856001300923e-04 7.3689365388758399e-05 -1.2382226017040000e-05  1.9104675677523617e-04 3.5305326584368247e-05 -1.4062621376456403e-05  -6.2285115889932176e-05 -9.6191400948915319e-05 -2.7706077751469514e-05  9.2857667275162041e-06 -9.0961546177423504e-05 -3.5958875084848528e-05  6.8948099639951115e-07 -6.1779756628656477e-05 -4.5876418804441409e-05  8.5744510751437059e-05 -3.1336470359533751e-05 -5.7369115208377715e-05  1.4328154460072179e-04 6.2053676416760925e-05 -4.2133973807724099e-05  -7.7676400316640073e-05 -7.6743732893786126e-05 4.3392663688308271e-05  1.8550889837373250e-04 9.0747182126388654e-05 1.6488678086844811e-05  2.6037161157049987e-05 -5.3456300815744538e-05 4.1209617088564226e-05  4.9484112976789344e-05 -3.5481023525499767e-05 5.2813265456779622e-05  3.4177824281372448e-05 -1.1334099481080622e-04 -1.9465476988104688e-05  6.3967825042208264e-05 6.6654298290114047e-06 -5.9271039785751471e-05  2.3853845101890998e-05 8.8807572462788929e-05 3.0584622222512376e-05  1.3666482800340121e-04 2.1729477162352004e-05 -4.5145123039264428e-05  1.7319029976816167e-04 3.0152984939297777e-05 -2.9786042736348195e-05  2.1763189415019605e-04 1.8427928332099752e-05 -1.9596574275192036e-05  2.3006931374168276e-04 2.4443224779358161e-05 -8.1026673280543198e-06  2.9521618535029284e-04 7.7501172570696820e-06 6.4289332469639210e-06  1.1417547055722735e-04 -4.7674518773972583e-05 4.6690892023793340e-05  1.6406224692310737e-04 -5.7744740722995813e-05 3.4504855931310990e-05  1.1197933947162748e-05 1.1160028669440555e-04 2.2723699810614648e-05  2.2742690005468581e-05 -8.0899323696572909e-05 3.8582352611567499e-05  -1.2199519068454922e-04 -1.0368680136676660e-04 -1.4590923306615850e-05  -2.6128184073154052e-04 2.8092312956486434e-05 -2.1168177990172376e-05  -1.3610642853792839e-06 2.7690944124254407e-05 4.6257730753233106e-05  -3.7500874018430672e-05 1.1542608582581963e-04 1.0481302562393847e-05  1.0722496187983362e-04 -6.9441819768873960e-05 -4.1353846150977879e-05  -2.9130889253009551e-04 -2.6359050385743374e-05 9.7316567118862588e-06  -1.7357562260819599e-04 -7.1660568489672222e-05 -1.2874272218954756e-05  -2.3145695374638626e-04 -7.8759390345619403e-05 -4.1079216615135423e-06  2.1309936219373818e-04 5.7922193854413606e-05 1.2301396695329993e-05  1.1384104496835517e-04 -1.0666118040932524e-04 -3.6404876109816746e-06  1.4120659491040542e-04 -6.5243303863611666e-05 -8.0195538964194455e-06  2.4581581854624710e-05 7.3333695308924881e-05 4.5854687891727845e-05  5.0226942581159178e-05 1.4029863712159332e-05 5.2106613707408628e-05  1.0794470446659352e-04 2.1851775065428519e-05 3.6399007867132240e-05  -7.0665294032023422e-05 -1.1329432580055354e-04 4.2417241930488742e-06  -2.8511813447649885e-05 1.1719244844741756e-04 -8.1468545213226793e-06  -1.7735112051573695e-04 6.9681281108668108e-05 -3.0308525550023543e-05  -2.9042124280917730e-04 -2.9085589570336230e-05 -6.3693290411033676e-06  -1.2428447298060751e-04 2.8293523413218548e-05 -4.6156368812885664e-05  2.4355191075863835e-04 5.3098887397313637e-05 -9.9953120329481249e-07  3.9464415778255460e-05 6.4020234128644166e-05 -3.7366160142149048e-05  -1.3278659265886008e-04 -5.3460983012588314e-05 3.7616784277822475e-05  2.5697810149218964e-04 -5.7083800863337998e-06 -2.7071262895191316e-05  -5.8736638425546676e-05 6.8221956875115001e-05 2.7505499261985956e-05  -6.8824277908020669e-05 -5.3808994955416711e-05 -4.9587343493564929e-05  -3.7636523303662044e-05 -9.0209096112361359e-05 -1.1074438203627928e-05  1.6429987727654928e-04 -6.6141093378479945e-05 2.7377261644542219e-05  -2.3881918003973231e-04 5.3492285902174984e-05 8.9205231779975449e-06  -1.4275831963958554e-05 -3.1356094120431198e-05 -5.1253476688494259e-05  -2.2424346339606647e-04 4.7678066212453787e-05 -2.7188133329092221e-05  2.9173763352037806e-04 -2.7221042439320818e-05 1.7230795396702996e-06  1.5272934624760342e-04 1.0172500697080560e-04 -1.4170930622722571e-07  8.4523716120592910e-05 9.4284035698310621e-05 1.1398151590569168e-05  -2.6889797056169371e-04 -5.2272783015483036e-05 -2.4760873665140347e-06  5.4825828359978211e-05 -3.2812205233139311e-05 -3.9865619226079774e-05  -5.8949609406026721e-05 -5.2317060195152093e-05 4.5945860684806541e-05  1.2854709960537702e-04 2.8683418627451893e-06 4.6651920491320947e-05  1.1886902679638795e-04 -9.6870946682636104e-05 -1.4911486575232729e-05  -2.6977014237293670e-04 4.8806621991387377e-05 -1.4885553774293432e-05  2.8317308090156895e-05 1.1057501011086193e-04 2.0604311296429373e-06  1.6108588699393917e-04 -2.3219501292643381e-05 3.4041352529464016e-05  1.3440956600630367e-04 -2.3888887822354058e-05 5.4001404133612697e-05  9.5546091761991651e-05 -9.4797638776583285e-05 -2.8495266065832930e-05  2.3040999951843787e-04 8.9497615904616601e-05 1.2124006595568577e-06  8.2258741067770436e-06 1.3488870460408906e-05 -1.7694973862283857e-06  1.2821577210479901e-04 5.1283317184025061e-05 -3.2782129077672752e-06  -2.0952584906828149e-04 -1.7613658957763222e-05 -1.7667250129480038e-06  9.3397193993205357e-05 -5.9892624758042936e-05 -1.9038572173478014e-05  -1.4349254534972691e-04 4.0130323124921633e-05 -1.4493950500260056e-05  7.3484002719919982e-05 -1.0938587019898652e-05 3.2341779181054253e-05  1.8232270466172815e-04 -1.1751763274687344e-05 -1.9306578996710037e-06  -3.8913293617163689e-05 -7.1540730368074067e-05 1.9087830850655547e-05  -1.3217288828564657e-04 3.4376059680400105e-05 1.8645344642298903e-05  1.0094418709742895e-04 1.1492813453442797e-05 -3.0883048935365250e-05  -1.1172557375807052e-04 -5.5935346659952113e-05 -3.1992458712338155e-05  4.0013989406017596e-05 4.7996488917695208e-05 2.2935869511051501e-05  -3.0027713069338421e-05 6.7515487282501153e-05 1.3561649774535340e-06  -8.3724141831679905e-05 -2.7138068879432448e-05 4.1790776889244815e-05  3.7507450769763508e-05 5.2059635939724523e-05 -2.6815474973733968e-05  -5.9567448459711085e-05 1.8051749843752961e-05 -4.0579077412116206e-05  1.1492817120251739e-04 -5.4080614531203808e-05 1.2141308306809467e-05  1.8365952872045294e-04 3.2233033688974802e-05 1.4179709137877239e-05  -1.7787464551635964e-04 -6.1490077537568123e-07 -2.5703215876250037e-05  2.4649382652100609e-05 -4.3585374679757960e-05 -4.4226396781594363e-05  -4.6322783265205599e-05 -9.1553948353602146e-05 -1.5748393902125421e-05  -1.6322352254450606e-04 -5.5410544596824017e-05 2.4455213118842271e-05  -1.4579571794071976e-04 -7.0759898918343141e-05 -1.4141949607753031e-07  1.9037164574505096e-04 -2.9190107787975983e-05 -2.8054401581318030e-05  -2.4422160140557820e-04 2.7382541553865286e-05 3.1426630872900504e-06  3.8959925751790409e-05 -6.3891777831689726e-05 3.9212196474100495e-05  2.2122108244513697e-04 2.9955681395494946e-05 -1.6725045285305850e-05  -2.1034825969752139e-04 -8.1012540728484476e-06 2.3312262253296854e-05  -1.6859478735333956e-04 7.3614994593445150e-05 4.9713810112050313e-06  2.0496001485348559e-04 -2.3972222560222737e-05 2.3883845887931093e-05  -5.3018875471981171e-05 2.5977083579290850e-05 3.9261317776702388e-05  8.1381243546416038e-05 9.0886340415413520e-05 1.6032293376573833e-05  7.2061091475155508e-05 9.4706717617887135e-05 -1.5278220839342593e-05  -8.6299515711115327e-05 8.3301354243516256e-05 -2.1967500570727770e-05  1.7921059764045076e-04 -6.5697758119768532e-05 -4.3267704804870171e-06  -7.4624989239322750e-05 7.9270433149461155e-05 2.8076128708852661e-05  6.0660386945602965e-05 -9.3114833530724291e-05 4.0017331386078138e-06  1.2365962996352186e-04 3.4921971403976741e-05 3.9266927580785253e-05  -2.2020096081120250e-04 -4.7267946257187129e-05 -1.8181145073787711e-05  -2.9740684517318614e-05 -3.6256358688944093e-05 -1.5177666809474550e-05  -7.4791260324506210e-05 -1.7806498130602026e-05 1.9700962628972473e-05  </DataArray> 
</PointData> 
</Piece>
</UnstructuredGrid>
</VTKFile>