<?xml version="1.0"?>
<VTKFile type="UnstructuredGrid"  version="0.1"  >
<UnstructuredGrid>
<Piece  NumberOfPoints="201" NumberOfCells="657">
<Points>
<DataArray  type="Float64"  NumberOfComponents="3"  format="ascii">-0.06801229517948834 0.3748379065456185 5367.432998414371  -0.4273593472631453 0.596795326660479 -5367.672497254346  305.7920121318483 0.7308871732557882 -5100.7652782207  579.2295603686886 0.8825579129263971 -4329.092665094346  792.4489236776832 0.09356427897754839 -3136.642101239416  926.5434947420067 -0.08387010210828182 -1645.157352352833  972.6188010738178 -0.1677083501898149 -0.1293047057872811  926.6911716158899 -0.1292150728326208 1645.177533522574  792.5901473440031 0.4275370059210185 3136.261487732189  579.6723039748402 0.503336367678507 4329.203989254366  306.2725533671483 0.5308110264381997 5100.737633813353  387.8435908616029 -770.8474573282139 -4658.952001884131  385.2559041014852 598.9952147261879 4775.000441780981  928.6837756205614 -709.8634890155889 -788.8664329221665  674.8976799139631 -758.685375355572 3562.72778688483  847.6222830620484 712.6416707191125 2240.814134892089  843.9886653509276 712.2254066170349 -2280.263352546299  432.6879042230019 691.6161819529711 -4596.549980225655  149.5933191236523 -685.7032754303958 5102.374171994616  670.1163632557364 -699.2898850812658 -3638.627901544256  470.2978893288081 -1367.807722050877 -3765.397803798248  695.0470756815789 -1356.1417192096 -2586.994729280035  481.2731163478499 -1935.403831637172 -2488.186850848022  674.4892380409433 -1830.811314901342 -1223.157702288197  427.4987290905093 -2318.35151520391 -1040.488024166388  605.1857119163603 -2086.380521282308 262.7970203912558  320.8769251693802 -2477.77576440032 474.9101329916232  463.0349402783571 -2146.252544069724 1801.528718486631  167.8611161968287 -2399.833060291778 1917.78421261696  296.4611214250265 -1942.473670389276 3170.308748349772  -11.44949733076893 -2085.117866133244 3177.689239324854  702.8228931843231 -1692.291466398317 1517.706759729939  670.3763419275075 699.6134039280829 3638.693643825193  681.5315796422905 1364.016841788348 2676.151944480356  821.3210495331313 1319.009960328187 1208.806054922453  110.7444518818146 -1535.100507114347 4254.36263824626  403.3662494163034 -1350.959292377767 4007.269051869128  470.2107262307391 1288.801660541048 3882.378894077468  455.3193807588324 1902.532814027995 2716.728864725282  930.410278834568 -692.2186324327636 788.7540718082897  826.7616180319449 -1428.826042320752 91.27319918364067  849.1375342345556 -713.2395886373957 -2219.037631014684  149.2421888697188 686.697357966342 -5102.711299203298  663.7548617299321 681.461772179998 -3688.838170932324  676.322259965133 1355.907250929611 -2730.302059510475  208.0178061916209 -2325.833264392153 -2160.240312842161  -145.7425823612582 -2429.326055929727 1815.536859722307  201.2531467288105 -1392.163151911728 -4368.188036466659  815.7029857401066 1334.471754360797 -1249.420842940545  616.7566385047942 1920.620516652931 -1506.462044762389  439.0516410276034 1851.712191896929 -2923.761723600845  348.8520526074286 2321.797923554452 -1626.452144042873  153.9501821292965 2163.699591126364 -2847.359608207641  45.41408656961805 2512.204730136894 -1476.822514949424  -158.1700746379259 2229.688153467054 -2628.007956625511  -261.5148302856548 2471.545211459691 -1113.242508586787  -457.6830776374133 2106.005784312705 -2011.560340204036  -50.3679458364285 2620.44957430043 98.43071809543471  -319.3376242422809 -2009.921185214381 2928.049089828457  -441.5572004223663 -2243.087766412991 1447.625435537855  -537.0490999979176 2200.545781737356 -543.1353619341132  -703.3459281925695 1721.315144669876 -1376.682352549605  -748.0423096776499 1722.319674966977 123.1321902023822  -870.013534275833 1137.417413276341 -859.282657819376  -881.0651444759528 1080.166060888556 801.5065432215597  -775.537967382345 1069.735142057129 -2450.608540943583  -719.1994474607197 1587.539414696878 1728.079597557693  -916.0006490785019 471.0723146805936 -1560.045111916884  -815.4041926187894 881.7700035880803 2358.199678654185  -783.8376970806684 299.4231590488549 -3146.178980478982  -877.0060525229866 -340.9941951970156 -2242.090583755754  -611.8555170600744 1317.373382132067 3208.603913327198  -137.283271923034 -1056.647518820649 4824.186775197338  -597.8332272386127 -1729.356836531183 2384.144816099955  -706.2155091965159 -455.8767343673478 -3595.228973005825  -763.4413381048214 -1079.414280458206 -2543.79937942712  -935.9734476470544 299.6410207601844 1345.729557734735  -333.4862867336366 1724.644324322695 -3564.931877254952  -673.3281174262555 560.9576716137706 3722.441787653868  214.6824178563596 1738.679583321575 3785.848596557459  -904.7534805032295 -893.2432212453625 -902.4287402984636  -574.3136468746686 180.9929271327381 -4335.281010128271  -449.1066175966316 992.1839544069754 4302.547991543184  -553.8164346593511 -1147.180129769578 -3744.870782478149  -581.5921972061681 -1725.729223595112 -2508.061326108771  -491.8857377238256 1942.839290785297 2406.704512690053  -253.6436790320064 -2535.319718966971 343.9729563465852  -472.0472252372783 166.6577231097434 4693.422063762986  -693.4556105045305 -242.1138106698098 3752.348883449871  -337.2448548852403 -1712.94361055247 -3577.497851308048  -339.9648394570295 -2205.542615285775 -2213.677855403339  -289.6452422922214 -1073.044026920165 -4608.111648766708  506.9739638893649 2265.453440809294 -150.6754413342644  -676.1589032554905 -1868.083882074061 945.6807870643153  -807.1626925587434 -1261.009746055822 1653.279082525386  179.7269312284376 2260.208564342708 2482.04710484766  -64.75480548059141 2026.587439872849 3316.11933880614  -22.26402275589342 1513.12001270615 4327.806865548524  -268.5639282454794 636.0176407378617 4986.510833005437  -448.3240283859378 -1397.274454687541 3796.182699867858  235.1604206331207 1699.292498726932 -3826.302400694146  -558.5815300260932 -2099.433889023009 -1165.460948733901  -73.9889183393109 1292.619418829215 -4610.034085737562  -163.2473110324452 551.2136944145738 -5163.518696204422  -111.9599767924096 2441.497385344767 1815.203246105242  -209.532517667677 -390.2163154710223 5178.769762611345  -72.58541621234751 -2125.839169283471 -3044.513796219543  -451.5348630751761 -630.6006975142408 4579.253603585667  -693.3237498410488 -1032.427243062131 3147.213406860464  -856.6085030583148 -500.3051641396701 2359.170588608821  -934.5946613338373 -655.0163846922032 746.7676816535673  -968.3362464341202 -85.43568677551767 -462.1224899683186  -381.4015615652312 1102.613312529835 -4378.646312979289  -576.4790571812194 1230.636595421748 -3526.706707381417  -85.68678349077511 -2460.808266053373 -1749.925657606306  -34.07693669738563 1908.240881692955 -3605.274425317376  399.6817014623154 2304.336476616358 1395.110144003346  844.0018692818004 -681.4464538489666 2321.688887473648  49.38779877734505 -718.8900003729633 -5139.52341080357  159.1600064595109 -2558.657292511848 -823.3398670729041  -303.5230502586526 1648.851267358398 3783.575377305098  932.4216985860015 664.7972930603107 -805.7567659293728  634.6527769189155 1904.557940624042 1372.595717362225  745.0804438361117 1732.682562021179 -60.863033468772  -753.5775231269455 -1564.376346034657 -1348.150411184367  -332.9495852724843 2469.113048957948 415.7650485852103  -554.5566496166726 2131.108618880201 976.3878209750496  -54.22656411245117 -1569.332632749245 -4231.601920870969  -231.3857900950109 -283.1892718275352 -5182.791771687407  -485.8756038005679 -458.417897744575 -4565.334862939229  232.6352018479228 2550.703882651238 -273.1364606238491  27.40146443890414 -2606.392507326419 594.0147154523756  548.3441160460941 -1644.469349742855 2907.692040671402  934.0416990616651 673.6904364886069 715.039091947715  433.2281934525882 -685.373723576721 4598.849356290631  -831.2726507034107 -1408.176411832737 131.469921143342  -178.5740735874741 -1699.169265713049 3910.208469209699  483.0097808056267 1248.990611795683 -3890.121203299821  -837.8645093089508 209.0108289792782 2716.291201502361  224.3986969853655 -1927.309635467029 -3365.848058867515  243.7811873678191 1230.543229164007 4514.617473114898  143.5734142465507 2534.521575351851 1123.515346707145  -616.8043224517185 1637.344634189819 -2506.853551669139  821.657400653841 -1269.727371527645 -1392.800778025281  -15.11861468854062 662.3457978267204 5180.699400920988  746.2191683673293 -1228.006805144679 2422.644321157541  -946.4728206739094 630.5660071085997 -121.0230538023725  -516.6281630836446 -2251.911019530016 51.48754085249926  -317.3080869908609 -2452.075452121466 -885.6892247642631  879.1839949993824 1167.246094516496 -37.07247790927676  -222.0787200366857 1262.417397371556 4508.747726768789  275.9732232033207 1145.681535615527 -4556.79738231892  -334.2770278783978 188.0903916769155 -5033.133432524778  -366.3695471086001 2290.300729469455 1697.869759811899  834.9533382865103 -1180.855646750352 1465.133367495908  -68.66680930081172 -2604.650567290083 -536.8267849930809  -632.4910268047337 672.0459720026173 -3859.952566828813  -434.0495546579121 565.6570471551355 -4668.152031665215  -279.7814100873105 2092.128640093841 2804.342906346079  -697.0403575406268 -1868.365013053444 -298.4534330795114  0.00373546410316246 0.05999715629994911 -0.1700876280971629  -311.5144440195043 -1039.388851684392 147.5134005625505  468.6190639266681 405.5622579961336 -24.47176989925807  -187.8462044782454 1089.380328917886 1173.023195893853  350.5197140932954 -773.342371057621 1066.758365358564  -228.3786033617016 112.1679418519443 -2372.530716878965  -481.5087604793717 206.3134473802925 1.898393952937835  92.78558739561991 1232.104554904618 -1018.945796847894  326.4964859953111 -607.1809602432901 -1595.234282935215  -253.756888820068 -114.6529696038422 2300.748641011599  244.415051214343 914.2559957021602 1855.172539594951  -90.40175564348877 -1041.957300858592 -2016.184222540303  81.06240152249096 -1512.457316519805 9.7672372584782  194.2190425544856 398.1582209
[...]
<PointData  Vectors="Centrifugal"> 
<DataArray  type="Float64"  Name="Centrifugal"  NumberOfComponents="3" format="ascii">-1.6070295797188407e-09 8.7429397680808057e-09 0.0000000000000000e+00  -1.0007947137704903e-08 1.3978908124838632e-08 0.0000000000000000e+00  7.3958049423513839e-06 1.7113784239838644e-08 0.0000000000000000e+00  1.4011014557253947e-05 2.0655225783562612e-08 0.0000000000000000e+00  1.9172403147285471e-05 2.1985537461969370e-09 0.0000000000000000e+00  2.2420719014389927e-05 -1.9545429084004048e-09 0.0000000000000000e+00  2.3536967330587915e-05 -3.9173044995045402e-09 0.0000000000000000e+00  2.2424167870405582e-05 -3.0343585886687578e-09 0.0000000000000000e+00  1.9175699134110832e-05 9.9797213469809566e-09 0.0000000000000000e+00  1.4021366471244523e-05 1.1750591126521906e-08 0.0000000000000000e+00  7.4070439834967759e-06 1.2394849948017042e-08 0.0000000000000000e+00  9.3799778334898192e-06 -1.8623606202161691e-05 0.0000000000000000e+00  9.3174157925330036e-06 1.4471496255976580e-05 0.0000000000000000e+00  2.2471406887130805e-05 -1.7131456498586771e-05 0.0000000000000000e+00  1.6325510456065529e-05 -1.8322062040271356e-05 0.0000000000000000e+00  2.0507585789655185e-05 1.7202677402148015e-05 0.0000000000000000e+00  2.0419768175835600e-05 1.7192956555526188e-05 0.0000000000000000e+00  1.0464828339548295e-05 1.6708150519086605e-05 0.0000000000000000e+00  3.6176002681977886e-06 -1.6569871187202782e-05 0.0000000000000000e+00  1.6210180907033669e-05 -1.6887492386547323e-05 0.0000000000000000e+00  1.1373551819206536e-05 -3.3035272765651162e-05 0.0000000000000000e+00  1.6811706936184954e-05 -3.2741409101150455e-05 0.0000000000000000e+00  1.1637307040389972e-05 -4.6729303911846128e-05 0.0000000000000000e+00  1.6312087179631165e-05 -4.4192654730544147e-05 0.0000000000000000e+00  1.0335441496857602e-05 -5.5964630927807186e-05 0.0000000000000000e+00  1.4634002316585530e-05 -5.0360244325613248e-05 0.0000000000000000e+00  7.7568040368205249e-06 -5.9812541575504382e-05 0.0000000000000000e+00  1.1195167329445529e-05 -5.1814450776638363e-05 0.0000000000000000e+00  4.0576961916642817e-06 -5.7940487065864933e-05 0.0000000000000000e+00  7.1676922415599677e-06 -4.6909596506520713e-05 0.0000000000000000e+00  -2.7688099504893504e-07 -5.0355523050710357e-05 0.0000000000000000e+00  1.6998334742551981e-05 -4.0849925072596821e-05 0.0000000000000000e+00  1.6216248447292685e-05 1.6895045044829601e-05 0.0000000000000000e+00  1.6484315538949712e-05 3.2932375535126320e-05 0.0000000000000000e+00  1.9868578616247763e-05 3.1836338458125064e-05 0.0000000000000000e+00  2.6776335466450244e-06 -3.7083436313003133e-05 0.0000000000000000e+00  9.7544857024968530e-06 -3.2631388276584658e-05 0.0000000000000000e+00  1.1371449682788986e-05 3.1127877499528534e-05 0.0000000000000000e+00  1.1009591723603509e-05 4.5937937991910459e-05 0.0000000000000000e+00  2.2513224748776379e-05 -1.6705899355759533e-05 0.0000000000000000e+00  2.0000047760328859e-05 -3.4484603323205790e-05 0.0000000000000000e+00  2.0544552133240676e-05 -1.7217140891149260e-05 0.0000000000000000e+00  3.6093964080454922e-06 1.6593115458834376e-05 0.0000000000000000e+00  1.6056050365579881e-05 1.6457208622225325e-05 0.0000000000000000e+00  1.6358322850273085e-05 3.2737202547569966e-05 0.0000000000000000e+00  5.0287464059809111e-06 -5.6155653227371785e-05 0.0000000000000000e+00  -3.5230981645155067e-06 -5.8651803207203762e-05 0.0000000000000000e+00  4.8665733063337721e-06 -3.3631806017497887e-05 0.0000000000000000e+00  1.9732683045513254e-05 3.2209752671129276e-05 0.0000000000000000e+00  1.4914621697264353e-05 4.6363425799670130e-05 0.0000000000000000e+00  1.0616456185417222e-05 4.4713478070514901e-05 0.0000000000000000e+00  8.4336492850450189e-06 5.6052736369348166e-05 0.0000000000000000e+00  3.7219582758917301e-06 5.2248525725000309e-05 0.0000000000000000e+00  1.0976790761545471e-06 6.0650706803586101e-05 0.0000000000000000e+00  -3.8236986336251712e-06 5.3839352716173804e-05 0.0000000000000000e+00  -6.3215997887503867e-06 5.9665767951632474e-05 0.0000000000000000e+00  -1.1066047779567135e-05 5.0844776129717349e-05 0.0000000000000000e+00  -1.2174889312423465e-06 6.3258268484790711e-05 0.0000000000000000e+00  -7.7209007519497339e-06 -4.8535288820310179e-05 0.0000000000000000e+00  -1.0675503081988986e-05 -5.4150065523697791e-05 0.0000000000000000e+00  -1.2985211693588378e-05 5.3117963496957965e-05 0.0000000000000000e+00  -1.7010805707819522e-05 4.1549812355305486e-05 0.0000000000000000e+00  -1.8092711194847130e-05 4.1570249419977419e-05 0.0000000000000000e+00  -2.1048715746836097e-05 2.7451898630493625e-05 0.0000000000000000e+00  -2.1316792559621340e-05 2.6069694652172475e-05 0.0000000000000000e+00  -1.8760925837502902e-05 2.5824896447257391e-05 0.0000000000000000e+00  -1.7395238885430279e-05 3.8321972727571154e-05 0.0000000000000000e+00  -2.2164844090723031e-05 1.1369768164123264e-05 0.0000000000000000e+00  -1.9727002221824100e-05 2.1286225615880358e-05 0.0000000000000000e+00  -1.8963514672789600e-05 7.2292107194403781e-06 0.0000000000000000e+00  -2.1220110220791343e-05 -8.2311050616194465e-06 0.0000000000000000e+00  -1.4798420459903957e-05 3.1811125217224492e-05 0.0000000000000000e+00  -3.3198546982448124e-06 -2.5530811745674287e-05 0.0000000000000000e+00  -1.4457820407614057e-05 -4.1752046353179524e-05 0.0000000000000000e+00  -1.7084109395926709e-05 -1.1008896267827205e-05 0.0000000000000000e+00  -1.8468114526215321e-05 -2.6059309433221263e-05 0.0000000000000000e+00  -2.2648984328898678e-05 7.2315858658904436e-06 0.0000000000000000e+00  -8.0635688562263457e-06 4.1652553562437805e-05 0.0000000000000000e+00  -1.6287863460707514e-05 1.3546827515544063e-05 0.0000000000000000e+00  5.1908201071783213e-06 4.1994570605785445e-05 0.0000000000000000e+00  -2.1891146814185803e-05 -2.1557627714958995e-05 0.0000000000000000e+00  -1.3891554271257716e-05 4.3716386368293551e-06 0.0000000000000000e+00  -1.0861757459791607e-05 2.3966506080605215e-05 0.0000000000000000e+00  -1.3394279688244362e-05 -2.7706187208047603e-05 0.0000000000000000e+00  -1.4064712480982239e-05 -4.1665462580399056e-05 0.0000000000000000e+00  -1.1893986867830857e-05 4.6907766084005467e-05 0.0000000000000000e+00  -6.1312483330613198e-06 -6.1202035479215839e-05 0.0000000000000000e+00  -1.1417280173123082e-05 4.0259515785356496e-06 0.0000000000000000e+00  -1.6775621247996641e-05 -5.8477304338699271e-06 0.0000000000000000e+00  -8.1544503644794016e-06 -4.1370430932565638e-05 0.0000000000000000e+00  -8.2189633570335547e-06 -5.3250786202914878e-05 0.0000000000000000e+00  -7.0042370749773001e-06 -2.5924657984210230e-05 0.0000000000000000e+00  1.2257446637551433e-05 5.4684655342697135e-05 0.0000000000000000e+00  -1.6352317600432118e-05 -4.5091132776464837e-05 0.0000000000000000e+00  -1.9526042901816850e-05 -3.0438075325330380e-05 0.0000000000000000e+00  4.3448822726294596e-06 5.4574528765212770e-05 0.0000000000000000e+00  -1.5655507089521690e-06 4.8942626455181864e-05 0.0000000000000000e+00  -5.3840610969749916e-07 3.6552838731719594e-05 0.0000000000000000e+00  -6.4950530835442424e-06 1.5366925950929689e-05 0.0000000000000000e+00  -1.0842114761706725e-05 -3.3747576398477674e-05 0.0000000000000000e+00  5.6861467812301370e-06 4.1043687548967873e-05 0.0000000000000000e+00  -1.3506644840919864e-05 -5.0678205084085190e-05 0.0000000000000000e+00  -1.7889299325493242e-06 3.1229527168499570e-05 0.0000000000000000e+00  -3.9475826555568034e-06 1.3319582587876349e-05 0.0000000000000000e+00  -2.7064062326262426e-06 5.8945640831911596e-05 0.0000000000000000e+00  -5.0673535765549897e-06 -9.4291885697333372e-06 0.0000000000000000e+00  -1.7546997915267322e-06 -5.1336771081198957e-05 0.0000000000000000e+00  -1.0920902535472782e-05 -1.5235076461389169e-05 0.0000000000000000e+00  -1.6771049391993102e-05 -2.4929557629111284e-05 0.0000000000000000e+00  -2.0725966697906032e-05 -1.2077417268069005e-05 0.0000000000000000e+00  -2.2615007544377560e-05 -1.5807806865929691e-05 0.0000000000000000e+00  -2.3433407486715097e-05 -2.0616656080823200e-06 0.0000000000000000e+00  -9.2234666343597905e-06 2.6635631627650314e-05 0.0000000000000000e+00  -1.3942598612448735e-05 2.9719685534110183e-05 0.0000000000000000e+00  -2.0712025768246029e-06 -5.9411292650102533e-05 0.0000000000000000e+00  -8.2385370806058653e-07 4.6088516747325658e-05 0.0000000000000000e+00  9.6626456188957997e-06 5.5629066323427618e-05 0.0000000000000000e+00  2.0419844332860131e-05 -1.6449921682535111e-05 0.0000000000000000e+00  1.1945275730087231e-06 -1.7372323119170908e-05 0.0000000000000000e+00  3.8472689538990974e-06 -6.1767208464961270e-05 0.0000000000000000e+00  -7.3392715315389810e-06 3.9824247004597315e-05 0.0000000000000000e+00  2.2562043554109082e-05 1.6044429153781665e-05 0.0000000000000000e+00  1.5347685390764519e-05 4.5974577176183574e-05 0.0000000000000000e+00  1.8020944736587467e-05 4.1820429871135828e-05 0.0000000000000000e+00  -1.8227389984010566e-05 -3.7760187291841769e-05 0.0000000000000000e+00  -8.0486621217112153e-06 5.9603653182075293e-05 0.0000000000000000e+00  -1.3408861004493935e-05 5.1442774092497194e-05 0.0000000000000000e+00  -1.3110800750499327e-06 -3.7910401325157712e-05 0.0000000000000000e+00  -5.5956186710074428e-06 -6.8434673273989885e-06 0.0000000000000000e+00  -1.1751481751002949e-05 -1.1074949841741799e-05 0.0000000000000000e+00  5.6233133010266899e-06 6.1573761638442149e-05 0.0000000000000000e+00  6.6225060991985796e-07 -6.2919375290653492e-05 0.0000000000000000e+00  1.3260668229136089e-05 -3.9707894509811740e-05 0.0000000000000000e+00  2.2601266533383735e-05 1.6258758435619263e-05 0.0000000000000000e+00  1.0477653462690971e-05 -1.6558319977585975e-05 0.0000000000000000e+00  -2.0109458912252722e-05 -3.3985673779233898e-05 0.0000000000000000e+00  -4.3178557247344967e-06 -4.1042578929183507e-05 0.0000000000000000e+00  1.1681327688978447e-05 3.0166737406312199e-05 0.0000000000000000e+00  -2.0272289409281552e-05 5.0455698620329400e-06 0.0000000000000000e+00  5.4255363937700920e-06 -4.6545842539220577e-05 0.0000000000000000e+00  5.8949545584741606e-06 2.9727829793678148e-05 0.0000000000000000e+00  3.4704027886670679e-06 6.1186751176156128e-05 0.0000000000000000e+00  -1.4916862407419983e-05 3.9531400699143955e-05 0.0000000000000000e+00  1.9877099633011198e-05 -3.0647206609509124e-05 0.0000000000000000e+00  -3.6568713826926397e-07 1.6004322030789118e-05 0.0000000000000000e+00  1.8050552850382195e-05 -2.9646263669684231e-05 0.0000000000000000e+00  -2.2902509059470435e-05 1.5217595315013025e-05 0.0000000000000000e+00  -1.2491022366629366e-05 -5.4357109215980757e-05 0.0000000000000000e+00  -7.6704784473158687e-06 -5.9193348742573970e-05 0.0000000000000000e+00  2.1270518149946107e-05 2.8170800530092173e-05 0.0000000000000000e+00  -5.3702352504021920e-06 3.0497894686298049e-05 0.0000000000000000e+00  6.6737699261595640e-06 2.7678360141507269e-05 0.0000000000000000e+00  -8.0842231153381226e-06 4.5440875477114163e-06 0.0000000000000000e+00  -8.8573735289008202e-06 5.5292531756818556e-05 0.0000000000000000e+00  2.0199300616968399e-05 -2.8502175879254637e-05 0.0000000000000000e+00  -1.6597708032501628e-06 -6.2876987203229115e-05 0.0000000000000000e+00  -1.5298979321429952e-05 1.6230896185556790e-05 0.0000000000000000e+00  -1.0497573650924698e-05 1.3665688583817754e-05 0.0000000000000000e+00  -6.7643685880708221e-06 5.0518740243294077e-05 0.0000000000000000e+00  -1.6857496358778255e-05 -4.5095951421871430e-05 0.0000000000000000e+00  9.3549632256269908e-11 1.4043394897861721e-09 0.0000000000000000e+00  -7.5373566904124113e-06 -2.5081019253234125e-05 0.0000000000000000e+00  1.1340598543104360e-05 9.7862074998059347e-06 0.0000000000000000e+00  -4.5449462301295966e-06 2.6289766404226993e-05 0.0000000000000000e+00  8.4815964952944633e-06 -1.8662002677176028e-05 0.0000000000000000e+00  -5.5261051438790178e-06 2.7075949968940706e-06 0.0000000000000000e+00  -1.1652910109073267e-05 4.9783978056684505e-06 0.0000000000000000e+00  2.2448496374647581e-06 2.9734235606243832e-05 0.0000000000000000e+00  7.9004484874293763e-06 -1.4652957472516480e-05 0.0000000000000000e+00  -6.1404865746136471e-06 -2.7674543967137552e-06 0.0000000000000000e+00  5.9135588238027202e-06 2.2065527357276357e-05 0.0000000000000000e+00  -2.1871238204093971e-06 -2.5148703148673117e-05 0.0000000000000000e+00  1.9610185724343801e-06 -3.6498929666880969e-05 0.0000000000000000e+00  4.6993912338660862e-06 9.6110844276617306e-06 0.0000000000000000e+00  -1.8609925418014395e-06 -2.8273775489690565e-05 0.0000000000000000e+00  4.1233632865822668e-06 -3.4244781277923811e-06 0.0000000000000000e+00  -7.9901340392215621e-06 2.7778949362601029e-05 0.0000000000000000e+00  -1.1713978366681657e-05 -1.3263120008285874e-05 0.0000000000000000e+00  1.1922229232762030e-05 1.6640918988081159e-06 0.0000000000000000e+00  -1.5992301224801043e-06 1.7042625480486822e-05 0.0000000000000000e+00  2.4761959238076364e-06 3.8981340779588960e-05 0.0000000000000000e+00  1.0144714913336756e-05 2.3028587627868921e-05 0.0000000000000000e+00  1.0174287359712963e-05 3.2422111244815540e-05 0.0000000000000000e+00  -1.1622529711848214e-05 1.4640226928310668e-05 0.0000000000000000e+00  1.4250987435172405e-05 -1.2206843782614569e-05 0.0000000000000000e+00  -2.8749828995785692e-06 2.5423515843085949e-05 0.0000000000000000e+00  -1.3718335667212872e-05 -1.3488029686552365e-05 0.0000000000000000e+00  1.3407058725099308e-05 2.3056194755702306e-06 0.0000000000000000e+00  9.9985314591513825e-06 -3.1912936069559283e-05 0.0000000000000000e+00  -1.2778617815770398e-05 1.1741439474508813e-05 0.0000000000000000e+00  2.9645455597835520e-06 -1.2370931961818736e-05 0.0000000000000000e+00  -4.6578817506752818e-06 -4.0009364238790174e-05 0.0000000000000000e+00  -4.5200105134201921e-06 -4.2100102702837466e-05 0.0000000000000000e+00  5.3678671272705861e-06 -3.7042934687533916e-05 0.0000000000000000e+00  -1.1667605594543122e-05 3.1752132313690153e-05 0.0000000000000000e+00  4.5208525564395157e-06 -3.6089561590046601e-05 0.0000000000000000e+00  -3.2446045763678422e-06 4.2691132977739763e-05 0.0000000000000000e+00  -7.8004879635114857e-06 -1.5960629386753326e-05 0.0000000000000000e+00  1.3406659503793807e-05 2.0729210592733547e-05 0.0000000000000000e+00  1.6865927267842313e-06 1.9245031762778225e-05 0.0000000000000000e+00  5.0015268423299431e-06 1.0357241428926648e-05 0.0000000000000000e+00  </DataArray> 
</PointData> 
</Piece>
</UnstructuredGrid>
</VTKFile>