<?xml version="1.0"?>
<VTKFile type="UnstructuredGrid"  version="0.1"  >
<UnstructuredGrid>
<Piece  NumberOfPoints="201" NumberOfCells="657">
<Points>
<DataArray  type="Float64"  NumberOfComponents="3"  format="ascii">-0.06801229517948834 0.3748379065456185 5367.432998414371  -0.4273593472631453 0.596795326660479 -5367.672497254346  305.7920121318483 0.7308871732557882 -5100.7652782207  579.2295603686886 0.8825579129263971 -4329.092665094346  792.4489236776832 0.09356427897754839 -3136.642101239416  926.5434947420067 -0.08387010210828182 -1645.157352352833  972.6188010738178 -0.1677083501898149 -0.1293047057872811  926.6911716158899 -0.1292150728326208 1645.177533522574  792.5901473440031 0.4275370059210185 3136.261487732189  579.6723039748402 0.503336367678507 4329.203989254366  306.2725533671483 0.5308110264381997 5100.737633813353  387.8435908616029 -770.8474573282139 -4658.952001884131  385.2559041014852 598.9952147261879 4775.000441780981  928.6837756205614 -709.8634890155889 -788.8664329221665  674.8976799139631 -758.685375355572 3562.72778688483  847.6222830620484 712.6416707191125 2240.814134892089  843.9886653509276 712.2254066170349 -2280.263352546299  432.6879042230019 691.6161819529711 -4596.549980225655  149.5933191236523 -685.7032754303958 5102.374171994616  670.1163632557364 -699.2898850812658 -3638.627901544256  470.2978893288081 -1367.807722050877 -3765.397803798248  695.0470756815789 -1356.1417192096 -2586.994729280035  481.2731163478499 -1935.403831637172 -2488.186850848022  674.4892380409433 -1830.811314901342 -1223.157702288197  427.4987290905093 -2318.35151520391 -1040.488024166388  605.1857119163603 -2086.380521282308 262.7970203912558  320.8769251693802 -2477.77576440032 474.9101329916232  463.0349402783571 -2146.252544069724 1801.528718486631  167.8611161968287 -2399.833060291778 1917.78421261696  296.4611214250265 -1942.473670389276 3170.308748349772  -11.44949733076893 -2085.117866133244 3177.689239324854  702.8228931843231 -1692.291466398317 1517.706759729939  670.3763419275075 699.6134039280829 3638.693643825193  681.5315796422905 1364.016841788348 2676.151944480356  821.3210495331313 1319.009960328187 1208.806054922453  110.7444518818146 -1535.100507114347 4254.36263824626  403.3662494163034 -1350.959292377767 4007.269051869128  470.2107262307391 1288.801660541048 3882.378894077468  455.3193807588324 1902.532814027995 2716.728864725282  930.410278834568 -692.2186324327636 788.7540718082897  826.7616180319449 -1428.826042320752 91.27319918364067  849.1375342345556 -713.2395886373957 -2219.037631014684  149.2421888697188 686.697357966342 -5102.711299203298  663.7548617299321 681.461772179998 -3688.838170932324  676.322259965133 1355.907250929611 -2730.302059510475  208.0178061916209 -2325.833264392153 -2160.240312842161  -145.7425823612582 -2429.326055929727 1815.536859722307  201.2531467288105 -1392.163151911728 -4368.188036466659  815.7029857401066 1334.471754360797 -1249.420842940545  616.7566385047942 1920.620516652931 -1506.462044762389  439.0516410276034 1851.712191896929 -2923.761723600845  348.8520526074286 2321.797923554452 -1626.452144042873  153.9501821292965 2163.699591126364 -2847.359608207641  45.41408656961805 2512.204730136894 -1476.822514949424  -158.1700746379259 2229.688153467054 -2628.007956625511  -261.5148302856548 2471.545211459691 -1113.242508586787  -457.6830776374133 2106.005784312705 -2011.560340204036  -50.3679458364285 2620.44957430043 98.43071809543471  -319.3376242422809 -2009.921185214381 2928.049089828457  -441.5572004223663 -2243.087766412991 1447.625435537855  -537.0490999979176 2200.545781737356 -543.1353619341132  -703.3459281925695 1721.315144669876 -1376.682352549605  -748.0423096776499 1722.319674966977 123.1321902023822  -870.013534275833 1137.417413276341 -859.282657819376  -881.0651444759528 1080.166060888556 801.5065432215597  -775.537967382345 1069.735142057129 -2450.608540943583  -719.1994474607197 1587.539414696878 1728.079597557693  -916.0006490785019 471.0723146805936 -1560.045111916884  -815.4041926187894 881.7700035880803 2358.199678654185  -783.8376970806684 299.4231590488549 -3146.178980478982  -877.0060525229866 -340.9941951970156 -2242.090583755754  -611.8555170600744 1317.373382132067 3208.603913327198  -137.283271923034 -1056.647518820649 4824.186775197338  -597.8332272386127 -1729.356836531183 2384.144816099955  -706.2155091965159 -455.8767343673478 -3595.228973005825  -763.4413381048214 -1079.414280458206 -2543.79937942712  -935.9734476470544 299.6410207601844 1345.729557734735  -333.4862867336366 1724.644324322695 -3564.931877254952  -673.3281174262555 560.9576716137706 3722.441787653868  214.6824178563596 1738.679583321575 3785.848596557459  -904.7534805032295 -893.2432212453625 -902.4287402984636  -574.3136468746686 180.9929271327381 -4335.281010128271  -449.1066175966316 992.1839544069754 4302.547991543184  -553.8164346593511 -1147.180129769578 -3744.870782478149  -581.5921972061681 -1725.729223595112 -2508.061326108771  -491.8857377238256 1942.839290785297 2406.704512690053  -253.6436790320064 -2535.319718966971 343.9729563465852  -472.0472252372783 166.6577231097434 4693.422063762986  -693.4556105045305 -242.1138106698098 3752.348883449871  -337.2448548852403 -1712.94361055247 -3577.497851308048  -339.9648394570295 -2205.542615285775 -2213.677855403339  -289.6452422922214 -1073.044026920165 -4608.111648766708  506.9739638893649 2265.453440809294 -150.6754413342644  -676.1589032554905 -1868.083882074061 945.6807870643153  -807.1626925587434 -1261.009746055822 1653.279082525386  179.7269312284376 2260.208564342708 2482.04710484766  -64.75480548059141 2026.587439872849 3316.11933880614  -22.26402275589342 1513.12001270615 4327.806865548524  -268.5639282454794 636.0176407378617 4986.510833005437  -448.3240283859378 -1397.274454687541 3796.182699867858  235.1604206331207 1699.292498726932 -3826.302400694146  -558.5815300260932 -2099.433889023009 -1165.460948733901  -73.9889183393109 1292.619418829215 -4610.034085737562  -163.2473110324452 551.2136944145738 -5163.518696204422  -111.9599767924096 2441.497385344767 1815.203246105242  -209.532517667677 -390.2163154710223 5178.769762611345  -72.58541621234751 -2125.839169283471 -3044.513796219543  -451.5348630751761 -630.6006975142408 4579.253603585667  -693.3237498410488 -1032.427243062131 3147.213406860464  -856.6085030583148 -500.3051641396701 2359.170588608821  -934.5946613338373 -655.0163846922032 746.7676816535673  -968.3362464341202 -85.43568677551767 -462.1224899683186  -381.4015615652312 1102.613312529835 -4378.646312979289  -576.4790571812194 1230.636595421748 -3526.706707381417  -85.68678349077511 -2460.808266053373 -1749.925657606306  -34.07693669738563 1908.240881692955 -3605.274425317376  399.6817014623154 2304.336476616358 1395.110144003346  844.0018692818004 -681.4464538489666 2321.688887473648  49.38779877734505 -718.8900003729633 -5139.52341080357  159.1600064595109 -2558.657292511848 -823.3398670729041  -303.5230502586526 1648.851267358398 3783.575377305098  932.4216985860015 664.7972930603107 -805.7567659293728  634.6527769189155 1904.557940624042 1372.595717362225  745.0804438361117 1732.682562021179 -60.863033468772  -753.5775231269455 -1564.376346034657 -1348.150411184367  -332.9495852724843 2469.113048957948 415.7650485852103  -554.5566496166726 2131.108618880201 976.3878209750496  -54.22656411245117 -1569.332632749245 -4231.601920870969  -231.3857900950109 -283.1892718275352 -5182.791771687407  -485.8756038005679 -458.417897744575 -4565.334862939229  232.6352018479228 2550.703882651238 -273.1364606238491  27.40146443890414 -2606.392507326419 594.0147154523756  548.3441160460941 -1644.469349742855 2907.692040671402  934.0416990616651 673.6904364886069 715.039091947715  433.2281934525882 -685.373723576721 4598.849356290631  -831.2726507034107 -1408.176411832737 131.469921143342  -178.5740735874741 -1699.169265713049 3910.208469209699  483.0097808056267 1248.990611795683 -3890.121203299821  -837.8645093089508 209.0108289792782 2716.291201502361  224.3986969853655 -1927.309635467029 -3365.848058867515  243.7811873678191 1230.543229164007 4514.617473114898  143.5734142465507 2534.521575351851 1123.515346707145  -616.8043224517185 1637.344634189819 -2506.853551669139  821.657400653841 -1269.727371527645 -1392.800778025281  -15.11861468854062 662.3457978267204 5180.699400920988  746.2191683673293 -1228.006805144679 2422.644321157541  -946.4728206739094 630.5660071085997 -121.0230538023725  -516.6281630836446 -2251.911019530016 51.48754085249926  -317.3080869908609 -2452.075452121466 -885.6892247642631  879.1839949993824 1167.246094516496 -37.07247790927676  -222.0787200366857 1262.417397371556 4508.747726768789  275.9732232033207 1145.681535615527 -4556.79738231892  -334.2770278783978 188.0903916769155 -5033.133432524778  -366.3695471086001 2290.300729469455 1697.869759811899  834.9533382865103 -1180.855646750352 1465.133367495908  -68.66680930081172 -2604.650567290083 -536.8267849930809  -632.4910268047337 672.0459720026173 -3859.952566828813  -434.0495546579121 565.6570471551355 -4668.152031665215  -279.7814100873105 2092.128640093841 2804.342906346079  -697.0403575406268 -1868.365013053444 -298.4534330795114  0.00373546410316246 0.05999715629994911 -0.1700876280971629  -311.5144440195043 -1039.388851684392 147.5134005625505  468.6190639266681 405.5622579961336 -24.47176989925807  -187.8462044782454 1089.380328917886 1173.023195893853  350.5197140932954 -773.342371057621 1066.758365358564  -228.3786033617016 112.1679418519443 -2372.530716878965  -481.5087604793717 206.3134473802925 1.898393952937835  92.78558739561991 1232.104554904618 -1018.945796847894  326.4964859953111 -607.1809602432901 -1595.234282935215  -253.756888820068 -114.6529696038422 2300.748641011599  244.415051214343 914.2559957021602 1855.172539594951  -90.40175564348877 -1041.957300858592 -2016.184222540303  81.06240152249096 -1512.457316519805 9.7672372584782  194.2190425544856 398.1582209
[...]
<PointData  Vectors="Coriolis"> 
<DataArray  type="Float64"  Name="Coriolis"  NumberOfComponents="3" format="ascii">4.2081519687481256e-12 4.9035789566375196e-13 0.0000000000000000e+00  5.9208432837555084e-12 4.2695075527900271e-12 0.0000000000000000e+00  7.3304220618975732e-12 3.3002818467202034e-11 0.0000000000000000e+00  8.9829368433397435e-12 8.7789329747158845e-11 0.0000000000000000e+00  8.3591530235814052e-13 1.7028423499723360e-10 0.0000000000000000e+00  -9.6403406741995457e-13 2.5237924458675712e-10 0.0000000000000000e+00  -1.8089332017998395e-12 2.8212709253180386e-10 0.0000000000000000e+00  -1.1799196363193450e-12 2.5077893239272267e-10 0.0000000000000000e+00  4.6992110975507860e-12 1.6872525102605929e-10 0.0000000000000000e+00  5.5121218355688584e-12 8.3150750663822146e-11 0.0000000000000000e+00  5.7753670711154566e-12 2.8012719852090412e-11 0.0000000000000000e+00  -1.7871204302331426e-10 3.7847855303592410e-11 0.0000000000000000e+00  1.4117289090703646e-10 3.7870516517269740e-11 0.0000000000000000e+00  -4.1171235294414238e-10 2.3844851597590473e-10 0.0000000000000000e+00  -2.7732435688065141e-10 1.0721853425997232e-10 0.0000000000000000e+00  3.5840136625899082e-10 1.8642549593454192e-10 0.0000000000000000e+00  3.5388186886967835e-10 1.8687726382627217e-10 0.0000000000000000e+00  1.7659045576472914e-10 4.6078584200141501e-11 0.0000000000000000e+00  -1.1501419363251664e-10 1.0562566035816349e-11 0.0000000000000000e+00  -2.5802862876894983e-10 1.1078292025620557e-10 0.0000000000000000e+00  -4.5973496087488215e-10 3.8276420838218430e-11 0.0000000000000000e+00  -6.1510882239738870e-10 9.4508201468808936e-11 0.0000000000000000e+00  -8.4183973949875103e-10 1.7244015955400152e-11 0.0000000000000000e+00  -9.4527132065649817e-10 6.0538608299249211e-11 0.0000000000000000e+00  -1.1497507642363227e-09 -5.5640915815073488e-12 0.0000000000000000e+00  -1.0958245418941344e-09 2.7692802363534029e-11 0.0000000000000000e+00  -1.2362439045797395e-09 -1.5896009344453424e-11 0.0000000000000000e+00  -1.0083353125361887e-09 1.6450728251819369e-12 0.0000000000000000e+00  -1.0729902300187716e-09 -1.0147913119321014e-11 0.0000000000000000e+00  -7.1866610305016560e-10 -7.9591565598917709e-14 0.0000000000000000e+00  -7.5626659834318718e-10 -7.9505788200447024e-13 0.0000000000000000e+00  -8.6187653780857958e-10 7.6453361020738917e-11 0.0000000000000000e+00  2.6157152331161118e-10 1.0791257204187049e-10 0.0000000000000000e+00  6.0766887386726102e-10 8.6350337294801676e-11 0.0000000000000000e+00  7.1138319308455663e-10 1.4553249336353882e-10 0.0000000000000000e+00  -4.1451108289186654e-10 1.3940680194019114e-12 0.0000000000000000e+00  -4.1409051185790852e-10 2.7432194950520001e-11 0.0000000000000000e+00  4.2320746860626015e-10 3.8344179815718631e-11 0.0000000000000000e+00  7.9744449640931399e-10 1.4374915950525816e-11 0.0000000000000000e+00  -3.9787053322684845e-10 2.3943878286257033e-10 0.0000000000000000e+00  -8.0107739612844792e-10 1.4460653959051284e-10 0.0000000000000000e+00  -3.5830513809092803e-10 1.9078524707043404e-10 0.0000000000000000e+00  1.2541096554665282e-10 1.4320794936175391e-11 0.0000000000000000e+00  2.4807926815081958e-10 1.0650547853565550e-10 0.0000000000000000e+00  5.9586586947562678e-10 8.5769702332241592e-11 0.0000000000000000e+00  -1.0164359671963634e-09 -8.0352098966966312e-12 0.0000000000000000e+00  -1.0960373398815254e-09 7.8649008777813676e-12 0.0000000000000000e+00  -3.5870013789383532e-10 1.0115640705687400e-11 0.0000000000000000e+00  7.1682663944236738e-10 1.4468235274238488e-10 0.0000000000000000e+00  9.5307756991029155e-10 3.9046506937433406e-11 0.0000000000000000e+00  7.4142949844918849e-10 1.6720967568461824e-11 0.0000000000000000e+00  1.0868575695201238e-09 -9.6370125226398051e-12 0.0000000000000000e+00  8.4717489829868727e-10 -2.3309570786660688e-12 0.0000000000000000e+00  1.1604823303209444e-09 -4.2290652553446599e-12 0.0000000000000000e+00  9.0787517574588663e-10 6.0970552963750054e-12 0.0000000000000000e+00  1.1853792097694221e-09 1.5570108285293135e-11 0.0000000000000000e+00  9.6369742874218835e-10 -5.2665707896058814e-12 0.0000000000000000e+00  1.2858895520383172e-09 3.7325836960945442e-12 0.0000000000000000e+00  -7.8474207630879728e-10 -1.3828279437621901e-12 0.0000000000000000e+00  -1.0823031012610849e-09 3.4267400671162301e-12 0.0000000000000000e+00  1.1289102224359244e-09 -9.0710785928910060e-12 0.0000000000000000e+00  8.8600191257396621e-10 -7.4153929745175475e-11 0.0000000000000000e+00  9.3666409131643393e-10 -9.0693670541770134e-11 0.0000000000000000e+00  6.3218254401320336e-10 -1.8333025689300216e-10 0.0000000000000000e+00  6.0596829645005587e-10 -1.9485711882954481e-10 0.0000000000000000e+00  5.0864992644042179e-10 -1.3591903868065679e-10 0.0000000000000000e+00  8.0012187210020184e-10 -8.9076313621536832e-11 0.0000000000000000e+00  2.5785944811886748e-10 -2.3955219736664125e-10 0.0000000000000000e+00  4.3152195992052094e-10 -1.6498666646254608e-10 0.0000000000000000e+00  1.3291786634204747e-10 -1.6120248050399756e-10 0.0000000000000000e+00  -1.7490289066400521e-10 -2.1401906219518845e-10 0.0000000000000000e+00  5.2249424263409016e-10 -6.9251548602160520e-11 0.0000000000000000e+00  -2.1468703273221123e-10 -8.9987102837780010e-12 0.0000000000000000e+00  -7.8329156950104275e-10 -4.8521292210838878e-11 0.0000000000000000e+00  -1.7207172584287431e-10 -1.2578260144126169e-10 0.0000000000000000e+00  -5.0344955472259168e-10 -1.3138457459565243e-10 0.0000000000000000e+00  1.7097681216053281e-10 -2.5596159991689074e-10 0.0000000000000000e+00  5.9324057185323009e-10 -9.1227421847225133e-12 0.0000000000000000e+00  2.0715490715333902e-10 -1.1118120993560290e-10 0.0000000000000000e+00  5.5799350158099168e-10 4.3284739766548999e-12 0.0000000000000000e+00  -5.1036796341056004e-10 -2.1628501742801982e-10 0.0000000000000000e+00  5.6885488374309848e-11 -7.9821506681495643e-11 0.0000000000000000e+00  2.9015529931969550e-10 -4.5620831687124590e-11 0.0000000000000000e+00  -3.9204262404907418e-10 -5.7424237699701537e-11 0.0000000000000000e+00  -7.6851772680957158e-10 -4.2733631288768105e-11 0.0000000000000000e+00  8.5906142285790255e-10 -1.8464852581809209e-11 0.0000000000000000e+00  -1.2596207727040631e-09 1.6181571196335475e-11 0.0000000000000000e+00  4.5009989945385027e-11 -5.7136711212591903e-11 0.0000000000000000e+00  -7.8731258205060799e-11 -1.2597717561199600e-10 0.0000000000000000e+00  -5.8308934751295141e-10 -9.2359491710202083e-12 0.0000000000000000e+00  -9.7086326157856909e-10 7.2032649599114851e-12 0.0000000000000000e+00  -2.4864701536461222e-10 -1.7495586497301497e-11 0.0000000000000000e+00  1.1633164106934919e-09 8.8201662568936798e-13 0.0000000000000000e+00  -9.8054082220914458e-10 -5.8722735630866213e-11 0.0000000000000000e+00  -6.5823825764774132e-10 -1.4261851426606676e-10 0.0000000000000000e+00  9.4382470893911734e-10 -6.2020151437793460e-12 0.0000000000000000e+00  7.2699902602559433e-10 7.9763143403100315e-13 0.0000000000000000e+00  4.0350821071790501e-10 -1.5397191380256183e-12 0.0000000000000000e+00  1.3697838352956861e-10 -2.4207464411751916e-11 0.0000000000000000e+00  -4.6143256999011467e-10 -3.6127783829642058e-11 0.0000000000000000e+00  5.3957798006127021e-10 7.2120600722694254e-12 0.0000000000000000e+00  -1.0647364536357691e-09 -2.0018380166080572e-11 0.0000000000000000e+00  3.0024368834435844e-10 -7.9553316255672594e-13 0.0000000000000000e+00  9.7415987629274447e-11 -8.7549892037664764e-12 0.0000000000000000e+00  1.1017622056936821e-09 6.7054228712500425e-12 0.0000000000000000e+00  -6.9452765884160461e-11 -1.8080885724436296e-11 0.0000000000000000e+00  -7.9958922588448757e-10 3.1107377186713389e-12 0.0000000000000000e+00  -1.4856924516791558e-10 -5.1357404440439896e-11 0.0000000000000000e+00  -4.2083261012646364e-10 -1.0777257243459491e-10 0.0000000000000000e+00  -2.4639686104462062e-10 -2.0111220110702160e-10 0.0000000000000000e+00  -3.7989713636100742e-10 -2.4752640134061747e-10 0.0000000000000000e+00  -5.2084427949155295e-11 -2.8188696491656417e-10 0.0000000000000000e+00  3.0046450133006967e-10 -2.7864675657841909e-11 0.0000000000000000e+00  4.4826133762799697e-10 -6.2589585514046222e-11 0.0000000000000000e+00  -1.1180458610737452e-09 6.4782476216422691e-12 0.0000000000000000e+00  6.3203143648267743e-10 5.5967903529039454e-13 0.0000000000000000e+00  1.1065356010796577e-09 -8.8371064721838374e-12 0.0000000000000000e+00  -3.3908892842997713e-10 1.8367882208296297e-10 0.0000000000000000e+00  -1.1398125219136638e-10 5.9527170361981417e-12 0.0000000000000000e+00  -1.2474083584090553e-09 -1.0883324093048907e-11 0.0000000000000000e+00  5.3821377304234702e-10 -1.0962471368668321e-11 0.0000000000000000e+00  3.7800159574967225e-10 2.4190759947761037e-10 0.0000000000000000e+00  9.5959539339506544e-10 4.4034776313554895e-11 0.0000000000000000e+00  9.4151331003369443e-10 8.8643319149008716e-11 0.0000000000000000e+00  -8.2327664396381661e-10 -1.0188998301821474e-10 0.0000000000000000e+00  1.2289465171221549e-09 1.6278150838728098e-11 0.0000000000000000e+00  1.0811530515643729e-09 -1.3807239787465679e-11 0.0000000000000000e+00  -4.2350341907067113e-10 -2.0475591533205800e-13 0.0000000000000000e+00  -4.4082930462666463e-11 -1.6855138965316290e-11 0.0000000000000000e+00  -1.1135716724888686e-10 -5.5366997326788012e-11 0.0000000000000000e+00  1.2625796066602185e-09 -1.6206410077428167e-11 0.0000000000000000e+00  -1.2731006036572067e-09 -3.2780800064799864e-12 0.0000000000000000e+00  -6.7516300430762193e-10 4.0265061043735978e-11 0.0000000000000000e+00  3.8701473644177275e-10 2.4263589872613916e-10 0.0000000000000000e+00  -1.6216125067321017e-10 4.2950243448537397e-11 0.0000000000000000e+00  -7.9676846416014059e-10 -1.4915181784157811e-10 0.0000000000000000e+00  -5.1496467605422813e-10 -4.9385270550423976e-12 0.0000000000000000e+00  4.0487974562482778e-10 4.3981888712628335e-11 0.0000000000000000e+00  1.0257819248350259e-10 -1.9461612119906381e-10 0.0000000000000000e+00  -6.8084173823506861e-10 1.7069750981431373e-12 0.0000000000000000e+00  3.1140680803963997e-10 1.2195410832186578e-11 0.0000000000000000e+00  1.2068214902727769e-09 -1.1157563147974337e-11 0.0000000000000000e+00  7.3089716887879466e-10 -5.3358723622443546e-11 0.0000000000000000e+00  -6.7981155348964642e-10 1.5064954221204297e-10 0.0000000000000000e+00  1.2584471094322128e-10 -2.0575286359957107e-12 0.0000000000000000e+00  -5.7773656476552192e-10 1.1596455853541422e-10 0.0000000000000000e+00  3.6755362384299177e-10 -2.5169621168998830e-10 0.0000000000000000e+00  -1.1649459125488098e-09 -3.0002007551845343e-12 0.0000000000000000e+00  -1.2075973508621313e-09 1.6420645479011223e-11 0.0000000000000000e+00  6.6220908374980531e-10 1.8442604406476289e-10 0.0000000000000000e+00  3.1895698334601852e-10 -1.2102149565597850e-11 0.0000000000000000e+00  2.8145077674653219e-10 1.8660861100482811e-11 0.0000000000000000e+00  4.5704768960289819e-11 -2.9329261216249437e-11 0.0000000000000000e+00  1.0694947421528370e-09 7.0786014697545175e-12 0.0000000000000000e+00  -6.3154698322926156e-10 1.6035875888228120e-10 0.0000000000000000e+00  -1.2766836601449261e-09 5.5678867603447601e-12 0.0000000000000000e+00  2.3046979710536333e-10 -9.0867177341451521e-11 0.0000000000000000e+00  1.3818439704918872e-10 -4.3761983289184249e-11 0.0000000000000000e+00  8.3897602213013689e-10 7.2916000783854089e-13 0.0000000000000000e+00  -1.0065740174502489e-09 -6.2888898493354479e-11 0.0000000000000000e+00  6.0830951523737731e-13 4.2850569835816538e-14 0.0000000000000000e+00  -6.4257873578633683e-10 -7.5066984343046828e-11 0.0000000000000000e+00  2.5376843205016697e-10 1.3873947158208838e-10 0.0000000000000000e+00  6.4156760040830374e-10 -4.3262413681630621e-11 0.0000000000000000e+00  -4.6718200874922009e-10 9.0704453256648397e-11 0.0000000000000000e+00  5.7220122637051271e-11 -5.8858698265046494e-11 0.0000000000000000e+00  1.2831498274650226e-10 -1.4756077054220756e-10 0.0000000000000000e+00  7.2380303141647429e-10 2.0037137565660306e-11 0.0000000000000000e+00  -3.5761205468404179e-10 8.6421150467081752e-11 0.0000000000000000e+00  -6.0146808814002681e-11 -6.9345845689241328e-11 0.0000000000000000e+00  5.1216304898182417e-10 5.5331938554418269e-11 0.0000000000000000e+00  -5.6908636632998140e-10 -1.8844027042238137e-11 0.0000000000000000e+00  -9.0199995722273935e-10 1.4862032113632222e-11 0.0000000000000000e+00  2.0260275256039808e-10 4.8071240377537362e-11 0.0000000000000000e+00  -6.3421693396203185e-10 -1.6861502036891824e-11 0.0000000000000000e+00  -6.5701218152379434e-11 4.0547914307077079e-11 0.0000000000000000e+00  6.7565727847413219e-10 -7.3294666631483010e-11 0.0000000000000000e+00  -3.2113412262088192e-10 -1.2927717528039548e-10 0.0000000000000000e+00  4.0332036041479370e-11 1.3415274381225906e-10 0.0000000000000000e+00  3.3480789175951528e-10 -1.4405718333350538e-11 0.0000000000000000e+00  9.2855424260056447e-10 1.4840082286972590e-11 0.0000000000000000e+00  5.3633685434716629e-10 9.6935662216882252e-11 0.0000000000000000e+00  7.9172071727644025e-10 8.3268633404479332e-11 0.0000000000000000e+00  3.4466462838029700e-10 -1.2426655916260219e-10 0.0000000000000000e+00  -3.1544793679918177e-10 1.6783891367276377e-10 0.0000000000000000e+00  5.1679394752801422e-10 -2.0344295390707297e-11 0.0000000000000000e+00  -3.3156033203902804e-10 -1.5612331587590841e-10 0.0000000000000000e+00  5.4615442353002286e-11 1.5404881163969681e-10 0.0000000000000000e+00  -7.8365205037131281e-10 8.4250595252880481e-11 0.0000000000000000e+00  2.7250030075243252e-10 -1.3896720325734391e-10 0.0000000000000000e+00  -2.3155761110568077e-10 2.7593177287141733e-11 0.0000000000000000e+00  -9.4146243026738990e-10 -2.6386769545717893e-11 0.0000000000000000e+00  -9.7929535650410677e-10 -2.3234166467656571e-11 0.0000000000000000e+00  -8.2910998745155941e-10 3.1502066418078237e-11 0.0000000000000000e+00  7.6796263660060375e-10 -9.6855770046323500e-11 0.0000000000000000e+00  -8.1080539758552638e-10 2.9429623967855475e-11 0.0000000000000000e+00  1.0055629094558094e-09 -1.6155027641010036e-11 0.0000000000000000e+00  -3.0967777190264688e-10 -6.5658127103692409e-11 0.0000000000000000e+00  4.9307967164625919e-10 1.3545257635815547e-10 0.0000000000000000e+00  5.0016911945423455e-10 1.7947140527845388e-11 0.0000000000000000e+00  2.6705503734747868e-10 5.9149805619581874e-11 0.0000000000000000e+00  </DataArray> 
</PointData> 
</Piece>
</UnstructuredGrid>
</VTKFile>