<?xml version="1.0"?>
<VTKFile type="UnstructuredGrid"  version="0.1"  >
<UnstructuredGrid>
<Piece  NumberOfPoints="201" NumberOfCells="657">
<Points>
<DataArray  type="Float64"  NumberOfComponents="3"  format="ascii">-0.06801229517948834 0.3748379065456185 5367.432998414371  -0.4273593472631453 0.596795326660479 -5367.672497254346  305.7920121318483 0.7308871732557882 -5100.7652782207  579.2295603686886 0.8825579129263971 -4329.092665094346  792.4489236776832 0.09356427897754839 -3136.642101239416  926.5434947420067 -0.08387010210828182 -1645.157352352833  972.6188010738178 -0.1677083501898149 -0.1293047057872811  926.6911716158899 -0.1292150728326208 1645.177533522574  792.5901473440031 0.4275370059210185 3136.261487732189  579.6723039748402 0.503336367678507 4329.203989254366  306.2725533671483 0.5308110264381997 5100.737633813353  387.8435908616029 -770.8474573282139 -4658.952001884131  385.2559041014852 598.9952147261879 4775.000441780981  928.6837756205614 -709.8634890155889 -788.8664329221665  674.8976799139631 -758.685375355572 3562.72778688483  847.6222830620484 712.6416707191125 2240.814134892089  843.9886653509276 712.2254066170349 -2280.263352546299  432.6879042230019 691.6161819529711 -4596.549980225655  149.5933191236523 -685.7032754303958 5102.374171994616  670.1163632557364 -699.2898850812658 -3638.627901544256  470.2978893288081 -1367.807722050877 -3765.397803798248  695.0470756815789 -1356.1417192096 -2586.994729280035  481.2731163478499 -1935.403831637172 -2488.186850848022  674.4892380409433 -1830.811314901342 -1223.157702288197  427.4987290905093 -2318.35151520391 -1040.488024166388  605.1857119163603 -2086.380521282308 262.7970203912558  320.8769251693802 -2477.77576440032 474.9101329916232  463.0349402783571 -2146.252544069724 1801.528718486631  167.8611161968287 -2399.833060291778 1917.78421261696  296.4611214250265 -1942.473670389276 3170.308748349772  -11.44949733076893 -2085.117866133244 3177.689239324854  702.8228931843231 -1692.291466398317 1517.706759729939  670.3763419275075 699.6134039280829 3638.693643825193  681.5315796422905 1364.016841788348 2676.151944480356  821.3210495331313 1319.009960328187 1208.806054922453  110.7444518818146 -1535.100507114347 4254.36263824626  403.3662494163034 -1350.959292377767 4007.269051869128  470.2107262307391 1288.801660541048 3882.378894077468  455.3193807588324 1902.532814027995 2716.728864725282  930.410278834568 -692.2186324327636 788.7540718082897  826.7616180319449 -1428.826042320752 91.27319918364067  849.1375342345556 -713.2395886373957 -2219.037631014684  149.2421888697188 686.697357966342 -5102.711299203298  663.7548617299321 681.461772179998 -3688.838170932324  676.322259965133 1355.907250929611 -2730.302059510475  208.0178061916209 -2325.833264392153 -2160.240312842161  -145.7425823612582 -2429.326055929727 1815.536859722307  201.2531467288105 -1392.163151911728 -4368.188036466659  815.7029857401066 1334.471754360797 -1249.420842940545  616.7566385047942 1920.620516652931 -1506.462044762389  439.0516410276034 1851.712191896929 -2923.761723600845  348.8520526074286 2321.797923554452 -1626.452144042873  153.9501821292965 2163.699591126364 -2847.359608207641  45.41408656961805 2512.204730136894 -1476.822514949424  -158.1700746379259 2229.688153467054 -2628.007956625511  -261.5148302856548 2471.545211459691 -1113.242508586787  -457.6830776374133 2106.005784312705 -2011.560340204036  -50.3679458364285 2620.44957430043 98.43071809543471  -319.3376242422809 -2009.921185214381 2928.049089828457  -441.5572004223663 -2243.087766412991 1447.625435537855  -537.0490999979176 2200.545781737356 -543.1353619341132  -703.3459281925695 1721.315144669876 -1376.682352549605  -748.0423096776499 1722.319674966977 123.1321902023822  -870.013534275833 1137.417413276341 -859.282657819376  -881.0651444759528 1080.166060888556 801.5065432215597  -775.537967382345 1069.735142057129 -2450.608540943583  -719.1994474607197 1587.539414696878 1728.079597557693  -916.0006490785019 471.0723146805936 -1560.045111916884  -815.4041926187894 881.7700035880803 2358.199678654185  -783.8376970806684 299.4231590488549 -3146.178980478982  -877.0060525229866 -340.9941951970156 -2242.090583755754  -611.8555170600744 1317.373382132067 3208.603913327198  -137.283271923034 -1056.647518820649 4824.186775197338  -597.8332272386127 -1729.356836531183 2384.144816099955  -706.2155091965159 -455.8767343673478 -3595.228973005825  -763.4413381048214 -1079.414280458206 -2543.79937942712  -935.9734476470544 299.6410207601844 1345.729557734735  -333.4862867336366 1724.644324322695 -3564.931877254952  -673.3281174262555 560.9576716137706 3722.441787653868  214.6824178563596 1738.679583321575 3785.848596557459  -904.7534805032295 -893.2432212453625 -902.4287402984636  -574.3136468746686 180.9929271327381 -4335.281010128271  -449.1066175966316 992.1839544069754 4302.547991543184  -553.8164346593511 -1147.180129769578 -3744.870782478149  -581.5921972061681 -1725.729223595112 -2508.061326108771  -491.8857377238256 1942.839290785297 2406.704512690053  -253.6436790320064 -2535.319718966971 343.9729563465852  -472.0472252372783 166.6577231097434 4693.422063762986  -693.4556105045305 -242.1138106698098 3752.348883449871  -337.2448548852403 -1712.94361055247 -3577.497851308048  -339.9648394570295 -2205.542615285775 -2213.677855403339  -289.6452422922214 -1073.044026920165 -4608.111648766708  506.9739638893649 2265.453440809294 -150.6754413342644  -676.1589032554905 -1868.083882074061 945.6807870643153  -807.1626925587434 -1261.009746055822 1653.279082525386  179.7269312284376 2260.208564342708 2482.04710484766  -64.75480548059141 2026.587439872849 3316.11933880614  -22.26402275589342 1513.12001270615 4327.806865548524  -268.5639282454794 636.0176407378617 4986.510833005437  -448.3240283859378 -1397.274454687541 3796.182699867858  235.1604206331207 1699.292498726932 -3826.302400694146  -558.5815300260932 -2099.433889023009 -1165.460948733901  -73.9889183393109 1292.619418829215 -4610.034085737562  -163.2473110324452 551.2136944145738 -5163.518696204422  -111.9599767924096 2441.497385344767 1815.203246105242  -209.532517667677 -390.2163154710223 5178.769762611345  -72.58541621234751 -2125.839169283471 -3044.513796219543  -451.5348630751761 -630.6006975142408 4579.253603585667  -693.3237498410488 -1032.427243062131 3147.213406860464  -856.6085030583148 -500.3051641396701 2359.170588608821  -934.5946613338373 -655.0163846922032 746.7676816535673  -968.3362464341202 -85.43568677551767 -462.1224899683186  -381.4015615652312 1102.613312529835 -4378.646312979289  -576.4790571812194 1230.636595421748 -3526.706707381417  -85.68678349077511 -2460.808266053373 -1749.925657606306  -34.07693669738563 1908.240881692955 -3605.274425317376  399.6817014623154 2304.336476616358 1395.110144003346  844.0018692818004 -681.4464538489666 2321.688887473648  49.38779877734505 -718.8900003729633 -5139.52341080357  159.1600064595109 -2558.657292511848 -823.3398670729041  -303.5230502586526 1648.851267358398 3783.575377305098  932.4216985860015 664.7972930603107 -805.7567659293728  634.6527769189155 1904.557940624042 1372.595717362225  745.0804438361117 1732.682562021179 -60.863033468772  -753.5775231269455 -1564.376346034657 -1348.150411184367  -332.9495852724843 2469.113048957948 415.7650485852103  -554.5566496166726 2131.108618880201 976.3878209750496  -54.22656411245117 -1569.332632749245 -4231.601920870969  -231.3857900950109 -283.1892718275352 -5182.791771687407  -485.8756038005679 -458.417897744575 -4565.334862939229  232.6352018479228 2550.703882651238 -273.1364606238491  27.40146443890414 -2606.392507326419 594.0147154523756  548.3441160460941 -1644.469349742855 2907.692040671402  934.0416990616651 673.6904364886069 715.039091947715  433.2281934525882 -685.373723576721 4598.849356290631  -831.2726507034107 -1408.176411832737 131.469921143342  -178.5740735874741 -1699.169265713049 3910.208469209699  483.0097808056267 1248.990611795683 -3890.121203299821  -837.8645093089508 209.0108289792782 2716.291201502361  224.3986969853655 -1927.309635467029 -3365.848058867515  243.7811873678191 1230.543229164007 4514.617473114898  143.5734142465507 2534.521575351851 1123.515346707145  -616.8043224517185 1637.344634189819 -2506.853551669139  821.657400653841 -1269.727371527645 -1392.800778025281  -15.11861468854062 662.3457978267204 5180.699400920988  746.2191683673293 -1228.006805144679 2422.644321157541  -946.4728206739094 630.5660071085997 -121.0230538023725  -516.6281630836446 -2251.911019530016 51.48754085249926  -317.3080869908609 -2452.075452121466 -885.6892247642631  879.1839949993824 1167.246094516496 -37.07247790927676  -222.0787200366857 1262.417397371556 4508.747726768789  275.9732232033207 1145.681535615527 -4556.79738231892  -334.2770278783978 188.0903916769155 -5033.133432524778  -366.3695471086001 2290.300729469455 1697.869759811899  834.9533382865103 -1180.855646750352 1465.133367495908  -68.66680930081172 -2604.650567290083 -536.8267849930809  -632.4910268047337 672.0459720026173 -3859.952566828813  -434.0495546579121 565.6570471551355 -4668.152031665215  -279.7814100873105 2092.128640093841 2804.342906346079  -697.0403575406268 -1868.365013053444 -298.4534330795114  0.00373546410316246 0.05999715629994911 -0.1700876280971629  -311.5144440195043 -1039.388851684392 147.5134005625505  468.6190639266681 405.5622579961336 -24.47176989925807  -187.8462044782454 1089.380328917886 1173.023195893853  350.5197140932954 -773.342371057621 1066.758365358564  -228.3786033617016 112.1679418519443 -2372.530716878965  -481.5087604793717 206.3134473802925 1.898393952937835  92.78558739561991 1232.104554904618 -1018.945796847894  326.4964859953111 -607.1809602432901 -1595.234282935215  -253.756888820068 -114.6529696038422 2300.748641011599  244.415051214343 914.2559957021602 1855.172539594951  -90.40175564348877 -1041.957300858592 -2016.184222540303  81.06240152249096 -1512.457316519805 9.7672372584782  194.2190425544856 398.1582209
[...]
<PointData  Vectors="Velocity"> 
<DataArray  type="Float64"  Name="Velocity"  NumberOfComponents="3" format="ascii">-2.2335387439910926e-09 1.9123851925226964e-08 -5.9950306189448433e-06  -1.9412942253372646e-08 2.6924767926124827e-08 5.9843588989038159e-06  -1.5005150854956153e-07 3.3333017298787484e-08 5.8793782563996292e-06  -3.9914415945665946e-07 4.0844780948574359e-08 5.4422337239303461e-06  -7.7421450899750310e-07 3.8042717922181043e-09 4.3381851667198620e-06  -1.1474620637367835e-06 -4.3802082051246002e-09 2.4525986189331795e-06  -1.2827101049712216e-06 -8.2227816625473366e-09 -5.7547154655429135e-09  -1.1401881471926767e-06 -5.3680466649878051e-09 -2.4514741533610100e-06  -7.6712922352007786e-07 2.1358127406694987e-08 -4.3552982661938620e-06  -3.7805722727669568e-07 2.5053019730875980e-08 -5.4377353111143193e-06  -1.2736593067425844e-07 2.6249964667595534e-08 -5.8806490518277090e-06  -1.7207339476326492e-07 -8.1249505477454928e-07 5.5449928073207520e-06  -1.7218353431132286e-07 6.4182599362861088e-07 -5.6715799869943371e-06  -1.0841272804508790e-06 -1.8716933921407222e-06 1.1906293052479452e-06  -4.8748025461996686e-07 -1.2608126866790116e-06 -4.7139229601745398e-06  -8.4760459443812386e-07 1.6293623563980952e-06 -3.2340385842686548e-06  -8.4965606703317751e-07 1.6088222890388644e-06 3.2741139016484838e-06  -2.0949717245608664e-07 8.0286092473573652e-07 5.5205206716930399e-06  -4.8026213716632769e-08 -5.2291559420642005e-07 -5.8054386309286201e-06  -5.0368366465969739e-07 -1.1730782448790708e-06 4.7911637509215058e-06  -1.7401676166904122e-07 -2.0901357244062227e-06 4.7135341732075849e-06  -4.2968691999914807e-07 -2.7964647688313293e-06 3.5269254741268058e-06  -7.8390580260924862e-08 -3.8273134926451867e-06 3.2230960628003538e-06  -2.7524572412440159e-07 -4.2974728135097574e-06 1.6838699015629676e-06  2.5301622369194447e-08 -5.2271791172036115e-06 1.3569343800077907e-06  -1.2591091705469476e-07 -4.9819545742846866e-06 -3.6196561253394810e-07  7.2275334311283004e-08 -5.6204261582910573e-06 -6.1604905631375665e-07  -7.4727188783245459e-09 -4.5842630277739816e-06 -2.3537123117361101e-06  4.6143439146891973e-08 -4.8782515886522887e-06 -2.4050673912021267e-06  3.7147424276031688e-10 -3.2673621727944265e-06 -3.9225179311377022e-06  3.6127816319700353e-09 -3.4383241487861331e-06 -3.8694741688256948e-06  -3.4760378733436333e-07 -3.9183328878840642e-06 -2.1097344372227317e-06  -4.9063781524866173e-07 1.1891822550898927e-06 -4.7880168531082243e-06  -3.9259839916087059e-07 2.7626451869417463e-06 -3.6263009227068334e-06  -6.6168403761562478e-07 3.2340929331450317e-06 -1.7492190876735396e-06  -6.3369854771199976e-09 -1.8845644128568623e-06 -5.0277978853231340e-06  -1.2471662146222341e-07 -1.8826382348100292e-06 -4.9261739993515142e-06  -1.7433098079962021e-07 1.9240662924588382e-06 -4.8383130651423924e-06  -6.5349266680932947e-08 3.6254856634228482e-06 -3.4904407072553627e-06  -1.0886298114075627e-06 -1.8087704709697735e-06 -1.1912527067187279e-06  -6.5747432255031792e-07 -3.6418567546418895e-06 -1.4061371034046243e-07  -8.6742191864912671e-07 -1.6289251688780229e-06 3.1922105965235147e-06  -6.5109634299859670e-08 5.7018115363349339e-07 5.7897061370723548e-06  -4.8423586121193825e-07 1.1278568776753036e-06 4.8408628954155885e-06  -3.8995500837950404e-07 2.7089962817230627e-06 3.6795780763232028e-06  3.6541319366221208e-08 -4.6211265397388062e-06 2.6988375082086234e-06  -3.5762630224394164e-08 -4.9830316004070940e-06 -2.2760706405970230e-06  -4.5984515225375018e-08 -1.6308107477713707e-06 5.1638749785594579e-06  -6.5781696802005839e-07 3.2588456138501079e-06 1.7981161252576350e-06  -1.7752705858916125e-07 4.3329939063807392e-06 2.0407979315845156e-06  -7.6012569487498635e-08 3.3708320137781941e-06 3.7121712630585192e-06  4.3821764624684507e-08 4.9412745124667637e-06 2.0897961405443456e-06  1.0604313289469442e-08 3.8516212514720521e-06 3.5032138595046832e-06  1.9229819249692696e-08 5.2760226102229997e-06 1.8516804913320808e-06  -2.7725326151728846e-08 4.1275872328569859e-06 3.2475898081615558e-06  -7.0795478417242825e-08 5.3891937097783351e-06 1.4202977271154395e-06  2.3938943937636258e-08 4.3813273844085537e-06 2.6095623170929042e-06  -1.6971124666701793e-08 5.8461570664093057e-06 -1.3190896589474014e-07  6.2749453711592833e-09 -3.5677656192569875e-06 -3.6612356566135165e-06  -1.5585522617032563e-08 -4.9205452487302529e-06 -1.8909210489715717e-06  4.1244510749286476e-08 5.1323990270386994e-06 7.2409344696553744e-07  3.3715223051882453e-07 4.0280131136317246e-06 1.9200658929134352e-06  4.1235595005937531e-07 4.2583018130349258e-06 -1.7476223008869676e-07  8.3353299808750178e-07 2.8740096591630250e-06 1.2605530870847522e-06  8.8594000115169419e-07 2.7548296701490775e-06 -1.1874995955098431e-06  6.1797006683038080e-07 2.3124553600848021e-06 3.4241463404984144e-06  4.0499465389734339e-07 3.6375710847937752e-06 -2.4105428004440230e-06  1.0891463983071825e-06 1.1722677627343455e-06 2.3123480611587226e-06  7.5012741896998133e-07 1.9617909677556918e-06 -3.3557041462202031e-06  7.3292624439877339e-07 6.0428406817469345e-07 4.3509363643676084e-06  9.7306046553141100e-07 -7.9513924561526575e-07 3.2600669923672375e-06  3.1485034992868474e-07 2.3754335807800458e-06 -4.2170952626900877e-06  4.0908016758375554e-08 -9.7607725416629325e-07 -5.5788762382475891e-06  2.2060034590053902e-07 -3.5611111380663994e-06 -3.1797331329510631e-06  5.7188570419651472e-07 -7.8228741288812303e-07 4.7932845988798789e-06  5.9735399737766698e-07 -2.2888102727702638e-06 3.5348798063093483e-06  1.1637510036444460e-06 7.7728246899256590e-07 -2.0231460588595328e-06  4.1467625228235166e-08 2.6971311332359543e-06 4.3915777483898526e-06  5.0549380754456802e-07 9.4178781116317716e-07 -4.8880745801128226e-06  -1.9675298722950298e-08 2.5368791494438528e-06 -4.5760234983748555e-06  9.8336347518205485e-07 -2.3202038407776777e-06 1.3377337468920931e-06  3.6291836136564152e-07 2.5862806658503841e-07 5.4289930323561445e-06  2.0741204066673028e-07 1.3191617803109759e-06 -5.2626240508160214e-06  2.6107870600882881e-07 -1.7823698253560793e-06 4.7716228842505470e-06  1.9428803402602251e-07 -3.4939410126866238e-06 3.3130840306949566e-06  8.3943101500911153e-08 3.9056048293300870e-06 -3.1218985830020288e-06  -7.3573231330010836e-08 -5.7267144241016842e-06 -4.4025139301751994e-07  2.5977582815995912e-07 2.0462634001756422e-07 -5.6719656591841730e-06  5.7276612711393492e-07 -3.5794316187653274e-07 -4.9699405784614662e-06  4.1982270302812920e-08 -2.6509679465056246e-06 4.4102169442141513e-06  -3.2758430122393269e-08 -4.4139215282031765e-06 2.8041883042237125e-06  7.9540357693297097e-08 -1.1304528419602259e-06 5.4254036264454860e-06  -4.0112123262670022e-09 5.2888283460479169e-06 1.9969603378878321e-07  2.6699335569531874e-07 -4.4578176984626947e-06 -1.3106647767113248e-06  6.4843033460384337e-07 -2.9925023701635189e-06 -2.3682358520709310e-06  2.8201789124251778e-08 4.2910135554642878e-06 -3.0858871657816588e-06  -3.6318275095768257e-09 3.3052529623182152e-06 -4.0302506201542652e-06  6.9966921937717535e-09 1.8345263097689105e-06 -5.0779287448047298e-06  1.1005623987872608e-07 6.2275805272762817e-07 -5.7607148639169657e-06  1.6424791921620257e-07 -2.0978674845462423e-06 -4.7314129963368280e-06  -3.2780367375939223e-08 2.4531696062722162e-06 4.6260685246222704e-06  9.1017890911383668e-08 -4.8406390142010587e-06 1.5569336648832400e-06  3.6153309104901553e-09 1.3650505492161547e-06 5.3368549623113469e-06  3.9804668120517679e-08 4.4290413810808676e-07 5.8492137665172390e-06  -3.0491813686496198e-08 5.0090566396812178e-06 -2.2776577861965919e-06  8.2203295439171134e-08 -3.1577427030035000e-07 -5.8988714353481816e-06  -1.4145207455076188e-08 -3.6352724948801245e-06 3.7123937824203743e-06  2.3349703682018670e-07 -6.7546551415007166e-07 -5.5404436303977891e-06  4.8999413657991780e-07 -1.9132403047350427e-06 -4.2229348508497856e-06  9.1437531568486755e-07 -1.1201728927547153e-06 -3.4049050089140173e-06  1.1254013803548183e-06 -1.7270584945833130e-06 -1.1231408169739089e-06  1.2816191313750721e-06 -2.3677896575232197e-07 7.0438349208806805e-07  1.2668396548165060e-07 1.3660492493214932e-06 5.2731442870665622e-06  2.8456388595722512e-07 2.0379668261747238e-06 4.5511461037312888e-06  -2.9454956713359171e-08 -5.0830859656422529e-06 2.1817628355893003e-06  -2.5446919182573113e-09 2.8735016216740078e-06 4.3307161507855174e-06  4.0182710785879779e-08 5.0307187435139939e-06 -1.8121345375170232e-06  -8.3511607751836123e-07 -1.5415741388517913e-06 -3.3420968147082464e-06  -2.7063719408109573e-08 -5.1820166510122814e-07 5.7955173183211595e-06  4.9485474574441110e-08 -5.6712035623318209e-06 1.0398569510071955e-06  4.9830052633354136e-08 2.4469501299430088e-06 -4.6233416152063103e-06  -1.0998534725484721e-06 1.7184417320306996e-06 1.2133959582509065e-06  -2.0021041580877471e-07 4.3626123464952882e-06 -1.8744047316836734e-06  -4.0303371095948222e-07 4.2803491170579376e-06 8.9394535149739088e-08  4.6325791690696735e-07 -3.7428211722644989e-06 1.8980047081821663e-06  -7.4012926732246297e-08 5.5872470211636517e-06 -5.4340205168151316e-07  6.2775509323920035e-08 4.9152770961813355e-06 -1.3128282642356793e-06  9.3007830979674960e-10 -1.9254375943538688e-06 4.9876557127674610e-06  7.6633692208586169e-08 -2.0041404480818541e-07 5.8991797939542631e-06  2.5173086608823988e-07 -5.0626877656261511e-07 5.5522188880970588e-06  7.3686189648894470e-08 5.7401705825336891e-06 3.4291251657391952e-07  1.4905521216277645e-08 -5.7880164491382529e-06 -7.5095541152114975e-07  -1.8306166971613890e-07 -3.0695402467790078e-06 -3.7837255575250204e-06  -1.1031651448377830e-06 1.7594142504390361e-06 -1.0816080104441051e-06  -1.9527684867127426e-07 -7.3726144117081882e-07 -5.5371952583734793e-06  6.7814127126974337e-07 -3.6222628883059717e-06 -1.9409040895703204e-07  2.2444168242928258e-08 -2.3412639796343915e-06 -4.6837732491000818e-06  -1.9995859794341629e-07 1.8407532577008412e-06 4.8605561469077953e-06  8.8484043991501764e-07 4.6633736646546441e-07 -3.8681892307012854e-06  -7.7498755718055207e-09 -3.0953940321798729e-06 4.1103260011831099e-06  -5.5444953558840382e-08 1.4157900582478094e-06 -5.3202075662716113e-06  5.0730985291058981e-08 5.4866851075256752e-06 -1.4188547152827657e-06  2.4259600157945329e-07 3.3229039570625841e-06 3.3351897964097497e-06  -6.8494480032938018e-07 -3.0905629113304592e-06 1.9997830940982268e-06  9.3513639852958826e-09 5.7214222470019858e-07 -5.8476796778176907e-06  -5.2724412276894051e-07 -2.6265508042757078e-06 -3.3613313671328261e-06  1.1443586317237691e-06 1.6709365790495110e-06 1.8338039895135046e-07  1.3642247642429942e-08 -5.2962330779068130e-06 -6.9152971521197873e-08  -7.4661251405180877e-08 -5.4901897827145612e-06 1.1312342238473546e-06  -8.3851497600322974e-07 3.0105091261713536e-06 5.3648406386720795e-08  5.5014522827635760e-08 1.4501151354585587e-06 -5.2983190593521594e-06  -8.4836361088201917e-08 1.2796075289102091e-06 5.3656541783769082e-06  1.3334949841996396e-07 2.0780121373014042e-07 5.8354539968758336e-06  -3.2190778968667695e-08 4.8623285363684968e-06 -2.1865577501034615e-06  -7.2908960120422399e-07 -2.8711423481620732e-06 -2.1267217442913747e-06  -2.5315214283334030e-08 -5.8043026571802726e-06 6.7607471700027481e-07  4.1313609822869867e-07 1.0478012493196759e-06 4.9844292680353890e-06  1.9896750896181629e-07 6.2825018255878732e-07 5.5907158253940683e-06  -3.3256187213651082e-09 3.8143246494039470e-06 -3.4948840723508038e-06  2.8593781221007554e-07 -4.5761567121478344e-06 4.0969356448874994e-07  -1.9350982189753124e-10 2.7660886287154123e-09 -7.7762272665007991e-09  3.4130913070115524e-07 -2.9213015086317725e-06 -2.1731179705779789e-07  -6.3080190887421180e-07 1.1536729033740342e-06 3.0000534499578188e-08  1.9670194238885471e-07 2.9167212069981195e-06 -1.7364058129390327e-06  -4.1240648507481146e-07 -2.1239090847722006e-06 -1.6005925545460312e-06  2.6761401279656952e-07 2.6014188691275234e-07 3.4448077551458399e-06  6.7090850348913107e-07 5.8333758805615518e-07 -5.9499094396039821e-09  -9.1102816199740453e-08 3.2905932120635328e-06 1.4904010988500945e-06  -3.9292904003405160e-07 -1.6257828600450736e-06 2.3607372139850653e-06  3.1529312713113656e-07 -2.7344720069928532e-07 -3.3574740297840626e-06  -2.5157978267117439e-07 2.3284229494084060e-06 -2.7010280074150141e-06  8.5680756235188094e-08 -2.5872253296486488e-06 2.8895473992516388e-06  -6.7574112631113598e-08 -4.1007319293402579e-06 -1.8345923794816559e-08  -2.1856462685019243e-07 9.2109468562524272e-07 3.7691628944648344e-06  7.6664445841682760e-08 -2.8833418538639716e-06 -2.8620266500389002e-06  -1.8436087538906861e-07 -2.9870260125433827e-07 -4.0147613820711702e-06  3.3325145301889850e-07 3.0716999968756340e-06 1.4625451967430218e-06  5.8778243160736986e-07 -1.4599402241872167e-06 2.2095764465677877e-06  -6.0994947740391061e-07 1.8335210150026161e-07 -2.8057381587216947e-06  6.5496409110201337e-08 1.5221449488105241e-06 -4.1532505951399342e-06  -6.7475191888904491e-08 4.2214707656209513e-06 -1.0928015178795082e-06  -4.4073698665790715e-07 2.4383186881533202e-06 2.3522516319162392e-06  -3.7860068255469890e-07 3.5993474681998022e-06 -2.1513322196895326e-07  5.6500030932566760e-07 1.5669184681240178e-06 -2.6535678622712614e-06  -7.6310588040805324e-07 -1.4340752749021316e-06 4.3342459123953039e-07  9.2500453209093276e-08 2.3495193703705154e-06 3.6819064138712362e-06  7.0984140569634401e-07 -1.5073355075837502e-06 -1.7429050146061104e-06  -7.0040672879004568e-07 2.4829476484799627e-07 2.6058416622395035e-06  -3.8306413155455156e-07 -3.5626674710701598e-06 6.4717770395717469e-07  6.3184011074125987e-07 1.2388467798804356e-06 2.6414221559760308e-06  -1.2545699214154739e-07 -1.0527367216211822e-06 4.4344979297925976e-06  1.1997675961618236e-07 -4.2801608937844182e-06 1.2570564126472501e-06  1.0564182314700370e-07 -4.4521713244690996e-06 -1.1736977300966608e-06  -1.4323235195407634e-07 -3.7693894450700941e-06 -2.3093926554061413e-06  4.4037684368514606e-07 3.4913341031853690e-06 -9.9995940271478661e-07  -1.3380757965570910e-07 -3.6861645435657593e-06 2.3675218417603003e-06  7.3454607390586647e-08 4.5715854853519229e-06 5.5701478159839316e-07  2.9852881086868595e-07 -1.4078904820468709e-06 4.1406716123981207e-06  -6.1586040525213328e-07 2.2416396542651695e-06 -1.9967417644698282e-06  -8.1600860822975278e-08 2.2738738083901525e-06 -6.4175574314948344e-07  -2.6893533511605436e-07 1.2140847753359888e-06 1.4273132853750466e-06  </DataArray> 
</PointData> 
</Piece>
</UnstructuredGrid>
</VTKFile>