<?xml version="1.0"?>
<VTKFile type="UnstructuredGrid"  version="0.1"  >
<UnstructuredGrid>
<Piece  NumberOfPoints="201" NumberOfCells="657">
<Points>
<DataArray  type="Float64"  NumberOfComponents="3"  format="ascii">-0.06801229517948834 0.3748379065456185 5367.432998414371  -0.4273593472631453 0.596795326660479 -5367.672497254346  305.7920121318483 0.7308871732557882 -5100.7652782207  579.2295603686886 0.8825579129263971 -4329.092665094346  792.4489236776832 0.09356427897754839 -3136.642101239416  926.5434947420067 -0.08387010210828182 -1645.157352352833  972.6188010738178 -0.1677083501898149 -0.1293047057872811  926.6911716158899 -0.1292150728326208 1645.177533522574  792.5901473440031 0.4275370059210185 3136.261487732189  579.6723039748402 0.503336367678507 4329.203989254366  306.2725533671483 0.5308110264381997 5100.737633813353  387.8435908616029 -770.8474573282139 -4658.952001884131  385.2559041014852 598.9952147261879 4775.000441780981  928.6837756205614 -709.8634890155889 -788.8664329221665  674.8976799139631 -758.685375355572 3562.72778688483  847.6222830620484 712.6416707191125 2240.814134892089  843.9886653509276 712.2254066170349 -2280.263352546299  432.6879042230019 691.6161819529711 -4596.549980225655  149.5933191236523 -685.7032754303958 5102.374171994616  670.1163632557364 -699.2898850812658 -3638.627901544256  470.2978893288081 -1367.807722050877 -3765.397803798248  695.0470756815789 -1356.1417192096 -2586.994729280035  481.2731163478499 -1935.403831637172 -2488.186850848022  674.4892380409433 -1830.811314901342 -1223.157702288197  427.4987290905093 -2318.35151520391 -1040.488024166388  605.1857119163603 -2086.380521282308 262.7970203912558  320.8769251693802 -2477.77576440032 474.9101329916232  463.0349402783571 -2146.252544069724 1801.528718486631  167.8611161968287 -2399.833060291778 1917.78421261696  296.4611214250265 -1942.473670389276 3170.308748349772  -11.44949733076893 -2085.117866133244 3177.689239324854  702.8228931843231 -1692.291466398317 1517.706759729939  670.3763419275075 699.6134039280829 3638.693643825193  681.5315796422905 1364.016841788348 2676.151944480356  821.3210495331313 1319.009960328187 1208.806054922453  110.7444518818146 -1535.100507114347 4254.36263824626  403.3662494163034 -1350.959292377767 4007.269051869128  470.2107262307391 1288.801660541048 3882.378894077468  455.3193807588324 1902.532814027995 2716.728864725282  930.410278834568 -692.2186324327636 788.7540718082897  826.7616180319449 -1428.826042320752 91.27319918364067  849.1375342345556 -713.2395886373957 -2219.037631014684  149.2421888697188 686.697357966342 -5102.711299203298  663.7548617299321 681.461772179998 -3688.838170932324  676.322259965133 1355.907250929611 -2730.302059510475  208.0178061916209 -2325.833264392153 -2160.240312842161  -145.7425823612582 -2429.326055929727 1815.536859722307  201.2531467288105 -1392.163151911728 -4368.188036466659  815.7029857401066 1334.471754360797 -1249.420842940545  616.7566385047942 1920.620516652931 -1506.462044762389  439.0516410276034 1851.712191896929 -2923.761723600845  348.8520526074286 2321.797923554452 -1626.452144042873  153.9501821292965 2163.699591126364 -2847.359608207641  45.41408656961805 2512.204730136894 -1476.822514949424  -158.1700746379259 2229.688153467054 -2628.007956625511  -261.5148302856548 2471.545211459691 -1113.242508586787  -457.6830776374133 2106.005784312705 -2011.560340204036  -50.3679458364285 2620.44957430043 98.43071809543471  -319.3376242422809 -2009.921185214381 2928.049089828457  -441.5572004223663 -2243.087766412991 1447.625435537855  -537.0490999979176 2200.545781737356 -543.1353619341132  -703.3459281925695 1721.315144669876 -1376.682352549605  -748.0423096776499 1722.319674966977 123.1321902023822  -870.013534275833 1137.417413276341 -859.282657819376  -881.0651444759528 1080.166060888556 801.5065432215597  -775.537967382345 1069.735142057129 -2450.608540943583  -719.1994474607197 1587.539414696878 1728.079597557693  -916.0006490785019 471.0723146805936 -1560.045111916884  -815.4041926187894 881.7700035880803 2358.199678654185  -783.8376970806684 299.4231590488549 -3146.178980478982  -877.0060525229866 -340.9941951970156 -2242.090583755754  -611.8555170600744 1317.373382132067 3208.603913327198  -137.283271923034 -1056.647518820649 4824.186775197338  -597.8332272386127 -1729.356836531183 2384.144816099955  -706.2155091965159 -455.8767343673478 -3595.228973005825  -763.4413381048214 -1079.414280458206 -2543.79937942712  -935.9734476470544 299.6410207601844 1345.729557734735  -333.4862867336366 1724.644324322695 -3564.931877254952  -673.3281174262555 560.9576716137706 3722.441787653868  214.6824178563596 1738.679583321575 3785.848596557459  -904.7534805032295 -893.2432212453625 -902.4287402984636  -574.3136468746686 180.9929271327381 -4335.281010128271  -449.1066175966316 992.1839544069754 4302.547991543184  -553.8164346593511 -1147.180129769578 -3744.870782478149  -581.5921972061681 -1725.729223595112 -2508.061326108771  -491.8857377238256 1942.839290785297 2406.704512690053  -253.6436790320064 -2535.319718966971 343.9729563465852  -472.0472252372783 166.6577231097434 4693.422063762986  -693.4556105045305 -242.1138106698098 3752.348883449871  -337.2448548852403 -1712.94361055247 -3577.497851308048  -339.9648394570295 -2205.542615285775 -2213.677855403339  -289.6452422922214 -1073.044026920165 -4608.111648766708  506.9739638893649 2265.453440809294 -150.6754413342644  -676.1589032554905 -1868.083882074061 945.6807870643153  -807.1626925587434 -1261.009746055822 1653.279082525386  179.7269312284376 2260.208564342708 2482.04710484766  -64.75480548059141 2026.587439872849 3316.11933880614  -22.26402275589342 1513.12001270615 4327.806865548524  -268.5639282454794 636.0176407378617 4986.510833005437  -448.3240283859378 -1397.274454687541 3796.182699867858  235.1604206331207 1699.292498726932 -3826.302400694146  -558.5815300260932 -2099.433889023009 -1165.460948733901  -73.9889183393109 1292.619418829215 -4610.034085737562  -163.2473110324452 551.2136944145738 -5163.518696204422  -111.9599767924096 2441.497385344767 1815.203246105242  -209.532517667677 -390.2163154710223 5178.769762611345  -72.58541621234751 -2125.839169283471 -3044.513796219543  -451.5348630751761 -630.6006975142408 4579.253603585667  -693.3237498410488 -1032.427243062131 3147.213406860464  -856.6085030583148 -500.3051641396701 2359.170588608821  -934.5946613338373 -655.0163846922032 746.7676816535673  -968.3362464341202 -85.43568677551767 -462.1224899683186  -381.4015615652312 1102.613312529835 -4378.646312979289  -576.4790571812194 1230.636595421748 -3526.706707381417  -85.68678349077511 -2460.808266053373 -1749.925657606306  -34.07693669738563 1908.240881692955 -3605.274425317376  399.6817014623154 2304.336476616358 1395.110144003346  844.0018692818004 -681.4464538489666 2321.688887473648  49.38779877734505 -718.8900003729633 -5139.52341080357  159.1600064595109 -2558.657292511848 -823.3398670729041  -303.5230502586526 1648.851267358398 3783.575377305098  932.4216985860015 664.7972930603107 -805.7567659293728  634.6527769189155 1904.557940624042 1372.595717362225  745.0804438361117 1732.682562021179 -60.863033468772  -753.5775231269455 -1564.376346034657 -1348.150411184367  -332.9495852724843 2469.113048957948 415.7650485852103  -554.5566496166726 2131.108618880201 976.3878209750496  -54.22656411245117 -1569.332632749245 -4231.601920870969  -231.3857900950109 -283.1892718275352 -5182.791771687407  -485.8756038005679 -458.417897744575 -4565.334862939229  232.6352018479228 2550.703882651238 -273.1364606238491  27.40146443890414 -2606.392507326419 594.0147154523756  548.3441160460941 -1644.469349742855 2907.692040671402  934.0416990616651 673.6904364886069 715.039091947715  433.2281934525882 -685.373723576721 4598.849356290631  -831.2726507034107 -1408.176411832737 131.469921143342  -178.5740735874741 -1699.169265713049 3910.208469209699  483.0097808056267 1248.990611795683 -3890.121203299821  -837.8645093089508 209.0108289792782 2716.291201502361  224.3986969853655 -1927.309635467029 -3365.848058867515  243.7811873678191 1230.543229164007 4514.617473114898  143.5734142465507 2534.521575351851 1123.515346707145  -616.8043224517185 1637.344634189819 -2506.853551669139  821.657400653841 -1269.727371527645 -1392.800778025281  -15.11861468854062 662.3457978267204 5180.699400920988  746.2191683673293 -1228.006805144679 2422.644321157541  -946.4728206739094 630.5660071085997 -121.0230538023725  -516.6281630836446 -2251.911019530016 51.48754085249926  -317.3080869908609 -2452.075452121466 -885.6892247642631  879.1839949993824 1167.246094516496 -37.07247790927676  -222.0787200366857 1262.417397371556 4508.747726768789  275.9732232033207 1145.681535615527 -4556.79738231892  -334.2770278783978 188.0903916769155 -5033.133432524778  -366.3695471086001 2290.300729469455 1697.869759811899  834.9533382865103 -1180.855646750352 1465.133367495908  -68.66680930081172 -2604.650567290083 -536.8267849930809  -632.4910268047337 672.0459720026173 -3859.952566828813  -434.0495546579121 565.6570471551355 -4668.152031665215  -279.7814100873105 2092.128640093841 2804.342906346079  -697.0403575406268 -1868.365013053444 -298.4534330795114  0.00373546410316246 0.05999715629994911 -0.1700876280971629  -311.5144440195043 -1039.388851684392 147.5134005625505  468.6190639266681 405.5622579961336 -24.47176989925807  -187.8462044782454 1089.380328917886 1173.023195893853  350.5197140932954 -773.342371057621 1066.758365358564  -228.3786033617016 112.1679418519443 -2372.530716878965  -481.5087604793717 206.3134473802925 1.898393952937835  92.78558739561991 1232.104554904618 -1018.945796847894  326.4964859953111 -607.1809602432901 -1595.234282935215  -253.756888820068 -114.6529696038422 2300.748641011599  244.415051214343 914.2559957021602 1855.172539594951  -90.40175564348877 -1041.957300858592 -2016.184222540303  81.06240152249096 -1512.457316519805 9.7672372584782  194.2190425544856 398.1582209
[...]
<PointData  Vectors="Tidal Force"> 
<DataArray  type="Float64"  Name="Tidal Force"  NumberOfComponents="3" format="ascii">-1.5166767835438924e-16 4.6678511674984419e-16 -0.0000000000000000e+00  -2.7929048087210694e-16 8.5956771499056670e-16 -0.0000000000000000e+00  3.8312735236985595e-14 -1.1791447449214966e-13 0.0000000000000000e+00  7.2774591128436554e-14 -2.2397716101999231e-13 0.0000000000000000e+00  1.0000448821055018e-13 -3.0778216698086067e-13 0.0000000000000000e+00  1.1702086187957923e-13 -3.6015318007962365e-13 0.0000000000000000e+00  1.2287486434289198e-13 -3.7816994708588285e-13 0.0000000000000000e+00  1.1705600439041741e-13 -3.6026133760667549e-13 0.0000000000000000e+00  9.9895361466368387e-14 -3.0744630939685769e-13 0.0000000000000000e+00  7.2974348558464287e-14 -2.2459195117376040e-13 0.0000000000000000e+00  3.8447756462837665e-14 -1.1833002709608549e-13 0.0000000000000000e+00  3.4801998404248203e-13 -1.0710953753967554e-12 0.0000000000000000e+00  -1.8378423404884787e-13 5.6562971147233544e-13 -0.0000000000000000e+00  3.9236983272030559e-13 -1.2075901745361181e-12 0.0000000000000000e+00  3.7942074227934117e-13 -1.1677369720682444e-12 0.0000000000000000e+00  -1.6925373062016403e-13 5.2090942028713101e-13 -0.0000000000000000e+00  -1.6955521637103921e-13 5.2183729801920685e-13 -0.0000000000000000e+00  -2.1371455564800316e-13 6.5774576951192067e-13 -0.0000000000000000e+00  2.8497431959872943e-13 -8.7706077186583835e-13 0.0000000000000000e+00  3.5577908051439253e-13 -1.0949754188695064e-12 0.0000000000000000e+00  5.8986149560188990e-13 -1.8154070140600767e-12 0.0000000000000000e+00  6.1351980381934106e-13 -1.8882197997716288e-12 0.0000000000000000e+00  8.1115388635011177e-13 -2.4964749619052182e-12 0.0000000000000000e+00  7.9481076920450956e-13 -2.4461760193247107e-12 0.0000000000000000e+00  9.5267277749559200e-13 -2.9320253233427894e-12 0.0000000000000000e+00  8.8510112757704442e-13 -2.7240611688278863e-12 0.0000000000000000e+00  1.0010122259564695e-12 -3.0807988480532431e-12 0.0000000000000000e+00  8.9050937503446194e-13 -2.7407060429910148e-12 0.0000000000000000e+00  9.5164624625794956e-13 -2.9288659850525922e-12 0.0000000000000000e+00  7.9072868912977618e-13 -2.4336126686824312e-12 0.0000000000000000e+00  8.0721977474206549e-13 -2.4843670113768415e-12 0.0000000000000000e+00  7.4471049599005412e-13 -2.2919832332588204e-12 0.0000000000000000e+00  -1.8670661126592030e-13 5.7462386372190575e-13 -0.0000000000000000e+00  -4.4285112473648069e-13 1.3629556158953072e-12 -0.0000000000000000e+00  -4.0759208873075224e-13 1.2544394612538158e-12 -0.0000000000000000e+00  6.0949876073711612e-13 -1.8758443016763343e-12 0.0000000000000000e+00  5.7492962770731695e-13 -1.7694514500659122e-12 0.0000000000000000e+00  -4.4055391429116179e-13 1.3558855291269741e-12 -0.0000000000000000e+00  -6.8027762717110894e-13 2.0936792536600690e-12 -0.0000000000000000e+00  3.8575564225938749e-13 -1.1872337894446860e-12 0.0000000000000000e+00  6.5815079258387045e-13 -2.0255798591274060e-12 0.0000000000000000e+00  3.8369148214910085e-13 -1.1808809578557491e-12 0.0000000000000000e+00  -2.4763817624187936e-13 7.6215193812544371e-13 -0.0000000000000000e+00  -1.8050858211755981e-13 5.5554829145082363e-13 -0.0000000000000000e+00  -4.4037635213113684e-13 1.3553390489902914e-12 -0.0000000000000000e+00  9.2804897503300673e-13 -2.8562410518880254e-12 0.0000000000000000e+00  9.2351189192321024e-13 -2.8422773458954962e-12 0.0000000000000000e+00  5.6549108913850653e-13 -1.7404026153003703e-12 0.0000000000000000e+00  -4.1429690987751656e-13 1.2750747789150136e-12 -0.0000000000000000e+00  -6.6673296365172856e-13 2.0519930657337384e-12 -0.0000000000000000e+00  -6.6266383081783026e-13 2.0394695626014259e-12 -0.0000000000000000e+00  -8.5615294667552560e-13 2.6349678290443275e-12 -0.0000000000000000e+00  -8.1964542673212391e-13 2.5226092359417855e-12 -0.0000000000000000e+00  -9.6827235309609101e-13 2.9800358803509376e-12 -0.0000000000000000e+00  -8.8456844109697050e-13 2.7224217284178378e-12 -0.0000000000000000e+00  -9.9116862371010303e-13 3.0505033554758931e-12 -0.0000000000000000e+00  -8.7426428699803991e-13 2.6907088029859678e-12 -0.0000000000000000e+00  -1.0222272048677481e-12 3.1460918393839836e-12 -0.0000000000000000e+00  7.3914688164261499e-13 -2.2748601889760941e-12 0.0000000000000000e+00  8.1389870140715948e-13 -2.5049226340181057e-12 0.0000000000000000e+00  -9.2078742253033180e-13 2.8338922912982703e-12 -0.0000000000000000e+00  -7.5601528684495681e-13 2.3267758019609547e-12 -0.0000000000000000e+00  -7.6198951368745310e-13 2.3451625815597599e-12 -0.0000000000000000e+00  -5.5068499444061775e-13 1.6948341414030228e-12 -0.0000000000000000e+00  -5.2988617684189695e-13 1.6308219628926325e-12 -0.0000000000000000e+00  -5.1261825677949959e-13 1.5776767696002354e-12 -0.0000000000000000e+00  -7.0618690568803919e-13 2.1734198136043598e-12 -0.0000000000000000e+00  -2.9824524145473849e-13 9.1790446958144971e-13 -0.0000000000000000e+00  -4.4477101559174709e-13 1.3688644323731893e-12 -0.0000000000000000e+00  -2.1504812145402162e-13 6.6185006303846498e-13 -0.0000000000000000e+00  2.1457277275478892e-14 -6.6038709017255393e-14 0.0000000000000000e+00  -5.8807847557830899e-13 1.8099194426875543e-12 -0.0000000000000000e+00  3.9267871689451526e-13 -1.2085408222738891e-12 0.0000000000000000e+00  5.9506073760011189e-13 -1.8314086355623187e-12 0.0000000000000000e+00  8.7649121242168230e-14 -2.6975625747001967e-13 0.0000000000000000e+00  3.2212180316055319e-13 -9.9138897046100744e-13 0.0000000000000000e+00  -2.3431546542252979e-13 7.2114885036996648e-13 -0.0000000000000000e+00  -7.1098108400870468e-13 2.1881747772947936e-12 -0.0000000000000000e+00  -3.0254002620033470e-13 9.3112245788746358e-13 -0.0000000000000000e+00  -6.4731210239903239e-13 1.9922218007840634e-12 -0.0000000000000000e+00  2.3196831561970396e-13 -7.1392506606319161e-13 0.0000000000000000e+00  -1.4269154124397639e-13 4.3915940734024664e-13 -0.0000000000000000e+00  -4.4155825025880119e-13 1.3589765574000862e-12 -0.0000000000000000e+00  3.7504457487706715e-13 -1.1542685136995844e-12 0.0000000000000000e+00  5.9572104688270313e-13 -1.8334408585706073e-12 0.0000000000000000e+00  -8.1536173962152911e-13 2.5094254026443146e-12 -0.0000000000000000e+00  9.5085831417284019e-13 -2.9264409794460626e-12 0.0000000000000000e+00  -1.2422692620724631e-13 3.8233116562666498e-13 -0.0000000000000000e+00  6.3737417025515270e-15 -1.9616359906341014e-14 0.0000000000000000e+00  6.2182268440632715e-13 -1.9137734386629705e-12 0.0000000000000000e+00  8.1227474748526718e-13 -2.4999246177680281e-12 0.0000000000000000e+00  3.7977771620522415e-13 -1.1688356248430336e-12 0.0000000000000000e+00  -8.1422978085137198e-13 2.5059415917729620e-12 -0.0000000000000000e+00  6.3879836674701722e-13 -1.9660192167304106e-12 0.0000000000000000e+00  3.8692274354038282e-13 -1.1908257578430901e-12 0.0000000000000000e+00  -8.5375215830352545e-13 2.6275789621962634e-12 -0.0000000000000000e+00  -7.9414676071025051e-13 2.4441324113135740e-12 -0.0000000000000000e+00  -5.8981525545605019e-13 1.8152647015244823e-12 -0.0000000000000000e+00  -2.8067028682396521e-13 8.6381432105270543e-13 -0.0000000000000000e+00  4.8538096127405164e-13 -1.4938489936336718e-12 0.0000000000000000e+00  -6.2945785728738708e-13 1.9372720845403291e-12 -0.0000000000000000e+00  7.4337138136653470e-13 -2.2878618622280044e-12 0.0000000000000000e+00  -5.1085558242008815e-13 1.5722518157433743e-12 -0.0000000000000000e+00  -2.3450042600588889e-13 7.2171810051234448e-13 -0.0000000000000000e+00  -9.6073890853587846e-13 2.9568503220518876e-12 -0.0000000000000000e+00  1.2498156538735110e-13 -3.8465370620756671e-13 0.0000000000000000e+00  8.1526740972401613e-13 -2.5091350850717022e-12 0.0000000000000000e+00  1.8767580472272156e-13 -5.7760673446796576e-13 0.0000000000000000e+00  3.1283493227009723e-13 -9.6280692081221504e-13 0.0000000000000000e+00  8.5805064226078922e-14 -2.6408083355051247e-13 0.0000000000000000e+00  1.3585354847719374e-13 -4.1811422957653723e-13 0.0000000000000000e+00  -8.9165798025712132e-14 2.7442410863751810e-13 -0.0000000000000000e+00  -4.7587213768356482e-13 1.4645838438140263e-12 -0.0000000000000000e+00  -5.5002468515802620e-13 1.6928019183947339e-12 -0.0000000000000000e+00  9.4328602789012225e-13 -2.9031358786171131e-12 0.0000000000000000e+00  -7.4444045353835015e-13 2.2911521280509487e-12 -0.0000000000000000e+00  -8.4293566338869062e-13 2.5942892138700060e-12 -0.0000000000000000e+00  3.7072019643813335e-13 -1.1409594453707898e-12 0.0000000000000000e+00  2.8521661796292961e-13 -8.7780648955235330e-13 0.0000000000000000e+00  1.0119988846079951e-12 -3.1146123065104877e-12 0.0000000000000000e+00  -6.7783984668243714e-13 2.0861765367835290e-12 -0.0000000000000000e+00  -1.3993192934025993e-13 4.3066619521596897e-13 -0.0000000000000000e+00  -6.5823032563471491e-13 2.0258246366886285e-12 -0.0000000000000000e+00  -5.7756901523184997e-13 1.7775746495976444e-12 -0.0000000000000000e+00  5.1128654057931489e-13 -1.5735781685751149e-12 0.0000000000000000e+00  -9.9918111618121527e-13 3.0751632716437020e-12 -0.0000000000000000e+00  -8.9609333504607034e-13 2.7578917047894027e-12 -0.0000000000000000e+00  6.0196531617690358e-13 -1.8526587433772838e-12 0.0000000000000000e+00  8.0702001731203767e-14 -2.4837522212230728e-13 0.0000000000000000e+00  1.1653441554534502e-13 -3.5865605220516986e-13 0.0000000000000000e+00  -9.5948302617487091e-13 2.9529851135851421e-12 -0.0000000000000000e+00  1.0138854825582567e-12 -3.1204186579627417e-12 0.0000000000000000e+00  7.0686756063480042e-13 -2.1755146541283104e-12 0.0000000000000000e+00  -1.4317058915487626e-13 4.4063376520900541e-13 -0.0000000000000000e+00  3.2058293110700621e-13 -9.8665280927642348e-13 0.0000000000000000e+00  4.4084985122453608e-13 -1.3567963293547787e-12 0.0000000000000000e+00  6.3657699014087536e-13 -1.9591825225204526e-12 0.0000000000000000e+00  -4.2350239811129446e-13 1.3034063585011592e-12 -0.0000000000000000e+00  -1.8680833958676776e-13 5.7493695130021355e-13 -0.0000000000000000e+00  7.7579497162936958e-13 -2.3876514121868433e-12 0.0000000000000000e+00  -4.4664466630117398e-13 1.3746309363154773e-12 -0.0000000000000000e+00  -9.6449915719556670e-13 2.9684231774464293e-12 -0.0000000000000000e+00  -7.1267717255810713e-13 2.1933948011003992e-12 -0.0000000000000000e+00  5.9588381219605935e-13 -1.8339417986959001e-12 0.0000000000000000e+00  -2.5892632064427979e-13 7.9689327431476449e-13 -0.0000000000000000e+00  5.7027971864167146e-13 -1.7551405014865330e-12 0.0000000000000000e+00  -3.6388590288301785e-13 1.1199256526099279e-12 -0.0000000000000000e+00  8.0775061161630596e-13 -2.4860007592854660e-12 0.0000000000000000e+00  9.1056835029974663e-13 -2.8024412209318933e-12 0.0000000000000000e+00  -3.4141134239906439e-13 1.0507560678095944e-12 -0.0000000000000000e+00  -5.1779160429605114e-13 1.5935986960825442e-12 -0.0000000000000000e+00  -4.0966919608187410e-13 1.2608321403527194e-12 -0.0000000000000000e+00  -1.1515645919932041e-13 3.5441513864445485e-13 -0.0000000000000000e+00  -9.3416932073635636e-13 2.8750775390993082e-12 -0.0000000000000000e+00  5.6311804485401047e-13 -1.7330991359736622e-12 0.0000000000000000e+00  1.0010880597956469e-12 -3.0810322406116179e-12 0.0000000000000000e+00  -3.4048284027060229e-13 1.0478984320948575e-12 -0.0000000000000000e+00  -2.7423550812890515e-13 8.4401010859937976e-13 -0.0000000000000000e+00  -8.4658493569836391e-13 2.6055205191791206e-12 -0.0000000000000000e+00  6.3624036187916200e-13 -1.9581464872613246e-12 0.0000000000000000e+00  -2.4044875836671465e-17 7.4002518509121640e-17 -0.0000000000000000e+00  3.6344754630045716e-13 -1.1185765297724923e-12 0.0000000000000000e+00  -9.7984718640269827e-14 3.0156595542609447e-13 -0.0000000000000000e+00  -4.4590852317940508e-13 1.3723653207488131e-12 -0.0000000000000000e+00  3.4395085120858373e-13 -1.0585718722644423e-12 0.0000000000000000e+00  -7.2319588093373401e-14 2.2257680566974277e-13 -0.0000000000000000e+00  -1.4075500393620755e-13 4.3319935834955054e-13 -0.0000000000000000e+00  -4.6579363549633223e-13 1.4335654035558567e-12 -0.0000000000000000e+00  2.7653826739172492e-13 -8.5109727287198409e-13 0.0000000000000000e+00  1.2403456720055293e-14 -3.8173914547859208e-14 0.0000000000000000e+00  -3.2349975950657776e-13 9.9562988402172229e-13 -0.0000000000000000e+00  3.9245306498281735e-13 -1.2078463371001881e-12 0.0000000000000000e+00  5.9637210813612711e-13 -1.8354446190717774e-12 0.0000000000000000e+00  -1.2982383345969001e-13 3.9955667493501903e-13 -0.0000000000000000e+00  4.4433820782668700e-13 -1.3675323870400251e-12 0.0000000000000000e+00  7.6507095700621404e-14 -2.3546462889317744e-13 0.0000000000000000e+00  -4.8779839609855396e-13 1.5012890929945507e-12 -0.0000000000000000e+00  1.5187113499608414e-13 -4.6741129190645985e-13 0.0000000000000000e+00  3.5484687917426306e-14 -1.0921063981519221e-13 0.0000000000000000e+00  -2.8203529592915470e-13 8.6801538710345407e-13 -0.0000000000000000e+00  -6.1308699605428098e-13 1.8868877544384643e-12 -0.0000000000000000e+00  -3.1688741865149316e-13 9.7527919143171405e-13 -0.0000000000000000e+00  -4.6758220433741411e-13 1.4390700524326508e-12 -0.0000000000000000e+00  -2.9575752160855972e-13 9.1024805516646728e-13 -0.0000000000000000e+00  2.7039202720670495e-13 -8.3218109064076785e-13 0.0000000000000000e+00  -4.2328044541126346e-13 1.3027232583303059e-12 -0.0000000000000000e+00  1.4502389420013355e-13 -4.4633765163563147e-13 0.0000000000000000e+00  3.2930382261238356e-14 -1.0134929534895397e-13 0.0000000000000000e+00  5.6466431533089196e-13 -1.7378580671639413e-12 0.0000000000000000e+00  -2.5523450740043399e-13 7.8553104147290242e-13 -0.0000000000000000e+00  2.1413256656639448e-13 -6.5903227483369466e-13 0.0000000000000000e+00  6.1820855460749196e-13 -1.9026502908809076e-12 0.0000000000000000e+00  6.5250579557975351e-13 -2.0082063447820335e-12 0.0000000000000000e+00  6.2288620776064154e-13 -1.9170466269816435e-12 0.0000000000000000e+00  -5.7079390906340945e-13 1.7567230168823430e-12 -0.0000000000000000e+00  6.0315461272790204e-13 -1.8563190217927737e-12 0.0000000000000000e+00  -7.0251173889669567e-13 2.1621088132753115e-12 -0.0000000000000000e+00  2.1561040162743298e-13 -6.6358058347129369e-13 0.0000000000000000e+00  -2.6294181490900397e-13 8.0925169490578778e-13 -0.0000000000000000e+00  -3.0025946220751806e-13 9.2410360363194462e-13 -0.0000000000000000e+00  -1.4023156548530154e-13 4.3158838044662118e-13 -0.0000000000000000e+00  </DataArray> 
</PointData> 
</Piece>
</UnstructuredGrid>
</VTKFile>