<?xml version="1.0"?>
<VTKFile type="UnstructuredGrid"  version="0.1"  >
<UnstructuredGrid>
<Piece  NumberOfPoints="201" NumberOfCells="657">
<Points>
<DataArray  type="Float64"  NumberOfComponents="3"  format="ascii">-0.06801229517948834 0.3748379065456185 5367.432998414371  -0.4273593472631453 0.596795326660479 -5367.672497254346  305.7920121318483 0.7308871732557882 -5100.7652782207  579.2295603686886 0.8825579129263971 -4329.092665094346  792.4489236776832 0.09356427897754839 -3136.642101239416  926.5434947420067 -0.08387010210828182 -1645.157352352833  972.6188010738178 -0.1677083501898149 -0.1293047057872811  926.6911716158899 -0.1292150728326208 1645.177533522574  792.5901473440031 0.4275370059210185 3136.261487732189  579.6723039748402 0.503336367678507 4329.203989254366  306.2725533671483 0.5308110264381997 5100.737633813353  387.8435908616029 -770.8474573282139 -4658.952001884131  385.2559041014852 598.9952147261879 4775.000441780981  928.6837756205614 -709.8634890155889 -788.8664329221665  674.8976799139631 -758.685375355572 3562.72778688483  847.6222830620484 712.6416707191125 2240.814134892089  843.9886653509276 712.2254066170349 -2280.263352546299  432.6879042230019 691.6161819529711 -4596.549980225655  149.5933191236523 -685.7032754303958 5102.374171994616  670.1163632557364 -699.2898850812658 -3638.627901544256  470.2978893288081 -1367.807722050877 -3765.397803798248  695.0470756815789 -1356.1417192096 -2586.994729280035  481.2731163478499 -1935.403831637172 -2488.186850848022  674.4892380409433 -1830.811314901342 -1223.157702288197  427.4987290905093 -2318.35151520391 -1040.488024166388  605.1857119163603 -2086.380521282308 262.7970203912558  320.8769251693802 -2477.77576440032 474.9101329916232  463.0349402783571 -2146.252544069724 1801.528718486631  167.8611161968287 -2399.833060291778 1917.78421261696  296.4611214250265 -1942.473670389276 3170.308748349772  -11.44949733076893 -2085.117866133244 3177.689239324854  702.8228931843231 -1692.291466398317 1517.706759729939  670.3763419275075 699.6134039280829 3638.693643825193  681.5315796422905 1364.016841788348 2676.151944480356  821.3210495331313 1319.009960328187 1208.806054922453  110.7444518818146 -1535.100507114347 4254.36263824626  403.3662494163034 -1350.959292377767 4007.269051869128  470.2107262307391 1288.801660541048 3882.378894077468  455.3193807588324 1902.532814027995 2716.728864725282  930.410278834568 -692.2186324327636 788.7540718082897  826.7616180319449 -1428.826042320752 91.27319918364067  849.1375342345556 -713.2395886373957 -2219.037631014684  149.2421888697188 686.697357966342 -5102.711299203298  663.7548617299321 681.461772179998 -3688.838170932324  676.322259965133 1355.907250929611 -2730.302059510475  208.0178061916209 -2325.833264392153 -2160.240312842161  -145.7425823612582 -2429.326055929727 1815.536859722307  201.2531467288105 -1392.163151911728 -4368.188036466659  815.7029857401066 1334.471754360797 -1249.420842940545  616.7566385047942 1920.620516652931 -1506.462044762389  439.0516410276034 1851.712191896929 -2923.761723600845  348.8520526074286 2321.797923554452 -1626.452144042873  153.9501821292965 2163.699591126364 -2847.359608207641  45.41408656961805 2512.204730136894 -1476.822514949424  -158.1700746379259 2229.688153467054 -2628.007956625511  -261.5148302856548 2471.545211459691 -1113.242508586787  -457.6830776374133 2106.005784312705 -2011.560340204036  -50.3679458364285 2620.44957430043 98.43071809543471  -319.3376242422809 -2009.921185214381 2928.049089828457  -441.5572004223663 -2243.087766412991 1447.625435537855  -537.0490999979176 2200.545781737356 -543.1353619341132  -703.3459281925695 1721.315144669876 -1376.682352549605  -748.0423096776499 1722.319674966977 123.1321902023822  -870.013534275833 1137.417413276341 -859.282657819376  -881.0651444759528 1080.166060888556 801.5065432215597  -775.537967382345 1069.735142057129 -2450.608540943583  -719.1994474607197 1587.539414696878 1728.079597557693  -916.0006490785019 471.0723146805936 -1560.045111916884  -815.4041926187894 881.7700035880803 2358.199678654185  -783.8376970806684 299.4231590488549 -3146.178980478982  -877.0060525229866 -340.9941951970156 -2242.090583755754  -611.8555170600744 1317.373382132067 3208.603913327198  -137.283271923034 -1056.647518820649 4824.186775197338  -597.8332272386127 -1729.356836531183 2384.144816099955  -706.2155091965159 -455.8767343673478 -3595.228973005825  -763.4413381048214 -1079.414280458206 -2543.79937942712  -935.9734476470544 299.6410207601844 1345.729557734735  -333.4862867336366 1724.644324322695 -3564.931877254952  -673.3281174262555 560.9576716137706 3722.441787653868  214.6824178563596 1738.679583321575 3785.848596557459  -904.7534805032295 -893.2432212453625 -902.4287402984636  -574.3136468746686 180.9929271327381 -4335.281010128271  -449.1066175966316 992.1839544069754 4302.547991543184  -553.8164346593511 -1147.180129769578 -3744.870782478149  -581.5921972061681 -1725.729223595112 -2508.061326108771  -491.8857377238256 1942.839290785297 2406.704512690053  -253.6436790320064 -2535.319718966971 343.9729563465852  -472.0472252372783 166.6577231097434 4693.422063762986  -693.4556105045305 -242.1138106698098 3752.348883449871  -337.2448548852403 -1712.94361055247 -3577.497851308048  -339.9648394570295 -2205.542615285775 -2213.677855403339  -289.6452422922214 -1073.044026920165 -4608.111648766708  506.9739638893649 2265.453440809294 -150.6754413342644  -676.1589032554905 -1868.083882074061 945.6807870643153  -807.1626925587434 -1261.009746055822 1653.279082525386  179.7269312284376 2260.208564342708 2482.04710484766  -64.75480548059141 2026.587439872849 3316.11933880614  -22.26402275589342 1513.12001270615 4327.806865548524  -268.5639282454794 636.0176407378617 4986.510833005437  -448.3240283859378 -1397.274454687541 3796.182699867858  235.1604206331207 1699.292498726932 -3826.302400694146  -558.5815300260932 -2099.433889023009 -1165.460948733901  -73.9889183393109 1292.619418829215 -4610.034085737562  -163.2473110324452 551.2136944145738 -5163.518696204422  -111.9599767924096 2441.497385344767 1815.203246105242  -209.532517667677 -390.2163154710223 5178.769762611345  -72.58541621234751 -2125.839169283471 -3044.513796219543  -451.5348630751761 -630.6006975142408 4579.253603585667  -693.3237498410488 -1032.427243062131 3147.213406860464  -856.6085030583148 -500.3051641396701 2359.170588608821  -934.5946613338373 -655.0163846922032 746.7676816535673  -968.3362464341202 -85.43568677551767 -462.1224899683186  -381.4015615652312 1102.613312529835 -4378.646312979289  -576.4790571812194 1230.636595421748 -3526.706707381417  -85.68678349077511 -2460.808266053373 -1749.925657606306  -34.07693669738563 1908.240881692955 -3605.274425317376  399.6817014623154 2304.336476616358 1395.110144003346  844.0018692818004 -681.4464538489666 2321.688887473648  49.38779877734505 -718.8900003729633 -5139.52341080357  159.1600064595109 -2558.657292511848 -823.3398670729041  -303.5230502586526 1648.851267358398 3783.575377305098  932.4216985860015 664.7972930603107 -805.7567659293728  634.6527769189155 1904.557940624042 1372.595717362225  745.0804438361117 1732.682562021179 -60.863033468772  -753.5775231269455 -1564.376346034657 -1348.150411184367  -332.9495852724843 2469.113048957948 415.7650485852103  -554.5566496166726 2131.108618880201 976.3878209750496  -54.22656411245117 -1569.332632749245 -4231.601920870969  -231.3857900950109 -283.1892718275352 -5182.791771687407  -485.8756038005679 -458.417897744575 -4565.334862939229  232.6352018479228 2550.703882651238 -273.1364606238491  27.40146443890414 -2606.392507326419 594.0147154523756  548.3441160460941 -1644.469349742855 2907.692040671402  934.0416990616651 673.6904364886069 715.039091947715  433.2281934525882 -685.373723576721 4598.849356290631  -831.2726507034107 -1408.176411832737 131.469921143342  -178.5740735874741 -1699.169265713049 3910.208469209699  483.0097808056267 1248.990611795683 -3890.121203299821  -837.8645093089508 209.0108289792782 2716.291201502361  224.3986969853655 -1927.309635467029 -3365.848058867515  243.7811873678191 1230.543229164007 4514.617473114898  143.5734142465507 2534.521575351851 1123.515346707145  -616.8043224517185 1637.344634189819 -2506.853551669139  821.657400653841 -1269.727371527645 -1392.800778025281  -15.11861468854062 662.3457978267204 5180.699400920988  746.2191683673293 -1228.006805144679 2422.644321157541  -946.4728206739094 630.5660071085997 -121.0230538023725  -516.6281630836446 -2251.911019530016 51.48754085249926  -317.3080869908609 -2452.075452121466 -885.6892247642631  879.1839949993824 1167.246094516496 -37.07247790927676  -222.0787200366857 1262.417397371556 4508.747726768789  275.9732232033207 1145.681535615527 -4556.79738231892  -334.2770278783978 188.0903916769155 -5033.133432524778  -366.3695471086001 2290.300729469455 1697.869759811899  834.9533382865103 -1180.855646750352 1465.133367495908  -68.66680930081172 -2604.650567290083 -536.8267849930809  -632.4910268047337 672.0459720026173 -3859.952566828813  -434.0495546579121 565.6570471551355 -4668.152031665215  -279.7814100873105 2092.128640093841 2804.342906346079  -697.0403575406268 -1868.365013053444 -298.4534330795114  0.00373546410316246 0.05999715629994911 -0.1700876280971629  -311.5144440195043 -1039.388851684392 147.5134005625505  468.6190639266681 405.5622579961336 -24.47176989925807  -187.8462044782454 1089.380328917886 1173.023195893853  350.5197140932954 -773.342371057621 1066.758365358564  -228.3786033617016 112.1679418519443 -2372.530716878965  -481.5087604793717 206.3134473802925 1.898393952937835  92.78558739561991 1232.104554904618 -1018.945796847894  326.4964859953111 -607.1809602432901 -1595.234282935215  -253.756888820068 -114.6529696038422 2300.748641011599  244.415051214343 914.2559957021602 1855.172539594951  -90.40175564348877 -1041.957300858592 -2016.184222540303  81.06240152249096 -1512.457316519805 9.7672372584782  194.2190425544856 398.1582209
[...]
<PointData  Vectors="Forcing"> 
<DataArray  type="Float64"  Name="Forcing"  NumberOfComponents="3" format="ascii">-2.8232500370344293e-05 -2.8611641000477473e-06 -4.8032775516418170e-05  -2.2771810355609166e-05 -1.4882427778564368e-06 5.2495984069184638e-05  -7.0619004906682370e-05 4.3812774104977275e-07 4.9429734212724456e-05  -1.5826849485724040e-04 3.9275584939904072e-06 4.6203097053772677e-05  -1.4876711534939562e-04 -1.0300445189834362e-06 2.1625458932614419e-05  -2.5877177059186737e-04 7.5299207140221042e-06 1.7239306074453758e-05  -2.8104836690836680e-04 -1.1419834826995999e-06 2.7400237765641497e-06  -2.7811550896023930e-04 -8.2586699212084640e-06 -1.4643597002159634e-05  -1.6848451486284639e-04 1.8557260019573650e-06 -2.4874549280741001e-05  -1.5004972214425057e-04 5.4708874138682284e-07 -4.1780846910695528e-05  -6.9447624935673564e-05 8.8683118158122119e-06 -4.1269333942485170e-05  -9.5006653185170616e-05 1.4404207272987996e-05 4.4769278196264281e-05  -1.0408104072052944e-04 -1.5009617825855142e-05 -5.0406036819787180e-05  -2.3444950136636722e-04 9.4817989452269535e-06 5.7561712321947615e-06  -1.6246915223386356e-04 1.2572067200272708e-05 -3.7701566337839489e-05  -2.0773729021538123e-04 -1.0200255321144287e-05 -2.3880651807395210e-05  -2.1342206397935277e-04 -1.3362530559104510e-05 2.5242145223728486e-05  -1.0902785209562298e-04 -1.2030758669375561e-05 4.8141255493318747e-05  -4.0060227183974276e-05 1.3675915975877929e-05 -4.8483441201583931e-05  -1.7187984955162802e-04 1.6763641996568149e-05 3.7271916358597953e-05  -1.2515792365086603e-04 2.8829652734879705e-05 3.9462781165499754e-05  -1.8990536497195365e-04 3.2730763421662807e-05 2.6211195603223936e-05  -1.3099604187292554e-04 4.1461028699467412e-05 2.3097818600296512e-05  -1.5878210757440945e-04 2.7171537036980080e-05 9.0124964336187218e-06  -1.0314904913029055e-04 3.8334131508564281e-05 1.0837279313453195e-05  -1.4609090855117717e-04 3.5132201605030076e-05 -5.3704992920971420e-06  -9.6026615099430664e-05 4.6495249570768682e-05 -5.8778048624343466e-06  -1.1005647747815492e-04 3.9028517268847404e-05 -1.9070598591333712e-05  -3.5912392141726715e-05 3.7505639665662691e-05 -1.9123242945560153e-05  -5.2613972854655774e-05 1.5359811200867041e-05 -2.1290865340207724e-05  6.9712156721049359e-06 4.2937060264524828e-05 -3.1849633759273278e-05  -1.9073010997843650e-04 4.1201124367933419e-05 -1.7133206012197946e-05  -1.7187476115569801e-04 -1.4606039338300335e-05 -3.3407109412471054e-05  -1.5659546479351204e-04 -2.0062242385617093e-05 -2.3301456007356288e-05  -2.1012104966809252e-04 -1.7124424367232263e-05 -1.5384420238382474e-05  -2.3330778073501748e-05 3.3224096174894382e-05 -4.7472129830238637e-05  -9.9233856400170225e-05 2.5142293860077494e-05 -4.1718757406647237e-05  -1.3882140836496962e-04 -2.9055598718871734e-05 -3.8862466026515434e-05  -1.3285017462467581e-04 -3.7745248647812028e-05 -2.4242008705561038e-05  -2.2480199657719021e-04 8.0187153876723661e-07 -7.4770482013332655e-06  -2.1336370243080501e-04 2.5414560480976129e-05 -2.3462435454408751e-06  -2.2104470857873900e-04 7.8204037005047435e-06 2.3579387643253650e-05  -3.3638725796758569e-05 -2.1320830992619225e-05 5.7457529494737460e-05  -1.6286737557409499e-04 -1.0306024120632487e-05 3.4954735218480333e-05  -1.5917059121827110e-04 -1.9140513939243037e-05 2.4344943154994892e-05  -4.8200828769546547e-05 2.1175070538183431e-05 1.9479224067538874e-05  2.2823471296776306e-05 4.3634913747357498e-05 -1.9701197734720209e-05  -5.2285401593450306e-05 2.6543629675332207e-05 4.3295918329118781e-05  -2.3886076148017790e-04 -2.3881128901856112e-05 1.5324480829872128e-05  -1.5565719408871997e-04 -2.1110099964670964e-05 1.2991366310788681e-05  -1.0682743046620394e-04 -3.5375006190314875e-05 2.8876893209196720e-05  -1.2025857844884828e-04 -4.4006071087663586e-05 1.7681699961203987e-05  -3.7034347837458758e-05 -4.1734097329556297e-05 3.1427776257388320e-05  -1.5732934625228076e-05 -5.1872475677937016e-05 1.7762146778353686e-05  4.2629131641040267e-05 -4.3316994174542525e-05 2.4515740231814960e-05  5.4380816646189445e-05 -2.7331934225854943e-05 8.2131574892294221e-06  1.1692726974742841e-04 -4.3181682597665110e-05 2.2604768750251054e-05  1.0427867941858925e-05 -4.2384380277442449e-05 -1.7915356216787178e-06  7.7811273976350929e-05 3.3615912584104499e-05 -2.6223083615416717e-05  8.3772504695103306e-05 3.1136131444298644e-05 -1.3966349065125031e-05  1.3966704944794157e-04 -3.7085423083631675e-05 5.6757328273556322e-06  1.9995497926420577e-04 -3.0988647573186781e-05 1.4208409123706327e-05  1.4139500775370227e-04 -1.0750313088159923e-05 -3.2784505258672741e-06  2.4525006446098703e-04 -2.4094961718260126e-05 7.6419453360892838e-06  2.5471284207133360e-04 -2.0844898515865425e-05 -1.0141307360535515e-05  1.6774652777962383e-04 -5.2298352644481646e-06 2.0019535720845529e-05  1.9693244358962993e-04 -1.6072688226604478e-05 -1.6034527081211694e-05  2.4858492484117287e-04 -5.0609403750538778e-06 1.6166326317633268e-05  2.0781257794796543e-04 -1.1721290070001808e-05 -2.2913309270358603e-05  2.0847759636347153e-04 1.3065268585564468e-06 2.6762939456688341e-05  2.4686353228452396e-04 3.6251173479343393e-06 1.9976032781232874e-05  1.5690709383503809e-04 -2.3911305127646682e-05 -2.9435152609859556e-05  4.9336664967500642e-05 1.8201462651082210e-05 -4.3103356166247405e-05  1.4677663028229553e-04 3.2868474998268973e-05 -2.4273295965626213e-05  2.1035149470223020e-04 1.0767661365391918e-05 3.6611157727668253e-05  1.9061389546534883e-04 1.3196788048167039e-05 2.6136696976108875e-05  2.5575097351753027e-04 1.9465049385487865e-06 -1.1720415608771478e-05  9.4033512734882261e-05 -3.6195757929452891e-05 3.6107799121729128e-05  1.5107830800218159e-04 -9.9224759718396066e-06 -2.7108981601524759e-05  -6.8838429494656766e-05 -3.7674443788984909e-05 -4.1748092197867072e-05  2.4572021565579427e-04 1.1822922253623477e-05 7.1621924997418067e-06  1.7005448243114050e-04 2.0125624450713363e-06 4.3473720601214667e-05  1.3410369075398428e-04 -1.5781980542565268e-05 -4.4793371861326470e-05  1.2638223699182991e-04 1.6812838758822258e-05 3.7192901686143928e-05  1.4279848622334124e-04 2.7820690222469204e-05 2.9652353471375000e-05  1.4253285706715429e-04 -3.0112974924309511e-05 -2.1542931323285701e-05  7.1643553208734713e-05 3.9934009334481539e-05 -4.9043672220615385e-06  1.2643133642114524e-04 -3.0896179664642678e-06 -4.3027793612244280e-05  2.0292934897418957e-04 1.1781064281560451e-06 -3.6925026268623158e-05  8.4427257950983351e-05 3.6502582495859981e-05 3.7354666726885461e-05  7.1369700525748494e-05 2.3019154262240654e-05 1.8100562726394158e-05  6.0725233645767764e-05 1.6762471997720845e-05 4.4969685887153777e-05  -1.2372579366555156e-04 -2.8710156250085493e-05 -1.9011823589322680e-06  1.7719526251055328e-04 2.8598171923538715e-05 -1.2382226017040000e-05  1.7152005602208442e-04 4.8671074496978414e-06 -1.4062621376456403e-05  -5.7939290646345941e-05 -4.1616875758138726e-05 -2.7706077751469514e-05  7.7209422234432994e-06 -4.2018916480477788e-05 -3.5958875084848528e-05  1.5147780509747444e-07 -2.5226917621391326e-05 -4.5876418804441409e-05  7.9249594365606049e-05 -1.5969567752254152e-05 -5.7369115208377715e-05  1.3243896889182603e-04 2.8306062396650428e-05 -4.2133973807724099e-05  -7.1989714586887728e-05 -3.5700036195486089e-05 4.3392663688308271e-05  1.7200118953973040e-04 4.0068954736061432e-05 1.6488678086844811e-05  2.4248530957333424e-05 -2.2226772870526313e-05 4.1209617088564226e-05  4.5536627502719740e-05 -2.2161448970894523e-05 5.2813265456779622e-05  3.1472518850212990e-05 -5.4395344316621442e-05 -1.9465476988104688e-05  5.8900402137868959e-05 -2.7637772062613628e-06 -5.9271039785751471e-05  2.2098346536405790e-05 3.7470801983192602e-05 3.0584622222512376e-05  1.2574377708635907e-04 6.4943487659516606e-06 -4.5145123039264428e-05  1.5641882985639337e-04 5.2233185748071371e-06 -2.9786042736348195e-05  1.9690568114123403e-04 6.3503096877488060e-06 -1.9596574275192036e-05  2.0745392643602237e-04 8.6351699689129010e-06 -8.1026673280543198e-06  2.7178272568998394e-04 5.6881700364465534e-06 6.4289332469639210e-06  1.0495230391149675e-04 -2.1038913546414081e-05 4.6690892023793340e-05  1.5012009602197160e-04 -2.8025116085669225e-05 3.4504855931310990e-05  9.1256142677630993e-06 5.2188997619414760e-05 2.2723699810614648e-05  2.1919467584404025e-05 -3.4810804098416080e-05 3.8582352611567499e-05  -1.1233143937298800e-04 -4.8057741286156249e-05 -1.4590923306615850e-05  -2.4086233511688864e-04 1.1642573811813963e-05 -2.1168177990172376e-05  -1.6665040840613422e-07 1.0318626079994045e-05 4.6257730753233106e-05  -3.3654851460891106e-05 5.3658863362921953e-05 1.0481302562393847e-05  9.9886227884227831e-05 -2.9617581640571476e-05 -4.1353846150977879e-05  -2.6874647111432262e-04 -1.0314378893696035e-05 9.7316567118862588e-06  -1.5822697828026840e-04 -2.5685945252887698e-05 -1.2874272218954756e-05  -2.1343506807405780e-04 -3.6938870053589773e-05 -4.1079216615135423e-06  1.9487114944437018e-04 2.0161903099010653e-05 1.2301396695329993e-05  1.0579361079397996e-04 -4.7057507873935839e-05 -3.6404876109816746e-06  1.2779881416286970e-04 -1.3800540820462556e-05 -8.0195538964194455e-06  2.3270078878121024e-05 3.5423291926352506e-05 4.5854687891727845e-05  4.4631279907923276e-05 7.1863792812461563e-06 5.2106613707408628e-05  9.6193111474957742e-05 1.0776769498033342e-05 3.6399007867132240e-05  -6.5040719110873090e-05 -5.1720577415536357e-05 4.2417241930488742e-06  -2.7850834924448202e-05 5.4273066758265400e-05 -8.1468545213226793e-06  -1.6409112674273761e-04 2.9973424688402761e-05 -3.0308525550023543e-05  -2.6781958940422771e-04 -1.2826588058184476e-05 -6.3693290411033676e-06  -1.1380698135858429e-04 1.1735245399223212e-05 -4.6156368812885664e-05  2.2344165551877132e-04 1.9113063109465568e-05 -9.9953120329481249e-07  3.5146045725421901e-05 2.2977648301751079e-05 -3.7366160142149048e-05  -1.2110486051363841e-04 -2.3294200320981043e-05 3.7616784277822475e-05  2.3670591447429222e-04 -6.6300426548510748e-07 -2.7071262895191316e-05  -5.3311782097719844e-05 2.1676113655218108e-05 2.7505499261985956e-05  -6.2929012389383132e-05 -2.4081151591696795e-05 -4.9587343493564929e-05  -3.4164914658003857e-05 -2.9022353125345206e-05 -1.1074438203627928e-05  1.4938374505362099e-04 -2.6609743844664810e-05 2.7377261644542219e-05  -2.1894275962239081e-04 2.2845228108266273e-05 8.9205231779975449e-06  -1.4641393516443194e-05 -1.5351773350277438e-05 -5.1253476688494259e-05  -2.0619348771196933e-04 1.8031916752187588e-05 -2.7188133329092221e-05  2.6883549165064553e-04 -1.2003697700593831e-05 1.7230795396702996e-06  1.4023715974281214e-04 4.7367892268623329e-05 -1.4170930622722571e-07  7.6852030986494527e-05 3.5090700573940912e-05 1.1398151590569168e-05  -2.4762679054407522e-04 -2.4101797008590732e-05 -2.4760873665140347e-06  4.9455911548767756e-05 -2.3143210553921299e-06 -3.9865619226079774e-05  -5.2275558438759607e-05 -2.4638680131951586e-05 4.5945860684806541e-05  1.2046292207965140e-04 7.4124004356105282e-06 4.6651920491320947e-05  1.1001272182805996e-04 -4.1578404972138540e-05 -1.4911486575232729e-05  -2.4957147273983347e-04 2.0304604737792490e-05 -1.4885553774293432e-05  2.6656261604334651e-05 4.7698025394487324e-05 2.0604311296429373e-06  1.4578713780182348e-04 -6.9886949263655008e-06 3.4041352529464016e-05  1.2391213026554054e-04 -1.0223242156509483e-05 5.4001404133612697e-05  8.8782561303358019e-05 -4.4278895198608681e-05 -2.8495266065832930e-05  2.1355149722188254e-04 4.4401599635700195e-05 1.2124006595568577e-06  8.2259682646947684e-06 1.3490274842823264e-05 -1.7694973862283857e-06  1.2067777319909833e-04 2.6202221745230065e-05 -3.2782129077672752e-06  -1.9818499685472980e-04 -7.8273124169197505e-06 -1.7667250129480038e-06  8.8852888884767640e-05 -3.3602900243864306e-05 -1.9038572173478014e-05  -1.3501141569249032e-04 2.1468410093626990e-05 -1.4493950500260056e-05  6.7957954723844009e-05 -8.2310506591260399e-06 3.2341779181054253e-05  1.7066992272688262e-04 -6.7735125965900762e-06 -1.9306578996710037e-06  -3.6667720642461144e-05 -4.1806473291127257e-05 1.9087830850655547e-05  -1.2427279713373362e-04 1.9723187777936820e-05 1.8645344642298903e-05  9.4803640388409964e-05 8.7252896727094375e-06 -3.0883048935365250e-05  -1.0581150309471857e-04 -3.3869762975107319e-05 -3.1992458712338155e-05  3.7826296891694938e-05 2.2847765717148714e-05 2.2935869511051501e-05  -2.8067595900489158e-05 3.1016570642207677e-05 1.3561649774535340e-06  -7.9024548124885101e-05 -1.7526935980973663e-05 4.1790776889244815e-05  3.5645824455366318e-05 2.3785842220999536e-05 -2.6815474973733968e-05  -5.5444150797839872e-05 1.4627312028410257e-05 -4.0579077412116206e-05  1.0693871233277591e-04 -2.6301736961980320e-05 1.2141308306809467e-05  1.7194522937151978e-04 1.8969783936102354e-05 1.4179709137877239e-05  -1.6595237591607688e-04 1.0493251669656071e-06 -2.5703215876250037e-05  2.3050487055476965e-05 -2.6542762736974083e-05 -4.4226396781594363e-05  -4.3845659400242360e-05 -5.2572590847043144e-05 -1.5748393902125421e-05  -1.5307827161120237e-04 -3.2381859058013690e-05 2.4455213118842271e-05  -1.3562063932787174e-04 -3.8337702965824144e-05 -1.4141949607753031e-07  1.7874946040207361e-04 -1.4550004215976424e-05 -2.8054401581318030e-05  -2.2997092914795058e-04 1.5175864777983299e-05 3.1426630872900504e-06  3.6085459222878925e-05 -3.8468281030175915e-05 3.9212196474100495e-05  2.0750241536261594e-04 1.6467495139289053e-05 -1.6725045285305850e-05  -1.9694114632404935e-04 -5.7954806498158725e-06 2.3312262253296854e-05  -1.5859703898157422e-04 4.1702141036623056e-05 4.9713810112050313e-06  1.9218166928278144e-04 -1.2230921267386139e-05 2.3883845887931093e-05  -5.0054561255676157e-05 1.3606178551617127e-05 3.9261317776702388e-05  7.6722420951519046e-05 5.0876947887203508e-05 1.6032293376573833e-05  6.7540102318884614e-05 5.2606589672676862e-05 -1.5278220839342593e-05  -8.0932477070945984e-05 4.6258449141002131e-05 -2.1967500570727770e-05  1.6754375943775035e-04 -3.3945720905125405e-05 -4.3267704804870171e-06  -7.0104946885126207e-05 4.3180899132719501e-05 2.8076128708852661e-05  5.7416787229632841e-05 -5.0423714545903358e-05 4.0017331386078138e-06  1.1585883253784888e-04 1.8961275695515730e-05 3.9266927580785253e-05  -2.0679380849067888e-04 -2.6538599402625525e-05 -1.8181145073787711e-05  -2.8053591921674392e-05 -1.7011308054921738e-05 -1.5177666809474550e-05  -6.9789466567370478e-05 -7.4491971202813787e-06 1.9700962628972473e-05  </DataArray> 
</PointData> 
</Piece>
</UnstructuredGrid>
</VTKFile>