<?xml version="1.0"?>
<VTKFile type="UnstructuredGrid"  version="0.1"  >
<UnstructuredGrid>
<Piece  NumberOfPoints="1216" NumberOfCells="5256">
<Points>
<DataArray  type="Float64"  NumberOfComponents="3"  format="ascii">-0.03373685470656405 -0.003620050243259417 5364.628171666825  -0.06267743987392269 0.1619626284047161 -5364.778628286449  155.0964497989105 0.1299645197269787 -5297.583709797465  305.9649414163691 0.1612564997769595 -5097.868702123053  448.4968854700054 0.1502583302397733 -4771.123000253314  579.0877375595603 0.1906550338249162 -4326.578584730436  694.4632421957577 0.1000582247861753 -3776.254148473728  792.0459708300995 0.02789974679181823 -3134.561171655787  869.779604113732 -0.007889770701932442 -2417.911172014254  926.2811409482471 -0.03105430884169964 -1644.137385928652  960.5122438888578 -0.03075591266728461 -831.7798374342176  972.0435716900313 -0.01778606853168995 -0.0354383281025253  960.5201787251992 -0.03593460508790087 831.7605572419411  926.3033362522308 -0.02667646203526678 1644.135473054033  869.7904062223389 -0.004104862393581623 2417.857933458849  792.0795610574996 0.1065948580083955 3134.445842769434  694.556394254718 0.1215345752029472 3776.224644775187  579.2140205293086 0.1141887506773614 4326.632912338098  448.6704825456457 0.1523181642037318 4771.190407110832  306.0700212215692 0.1121650066783703 5097.876336455406  155.16117590468 0.04493079353663624 5297.557348945115  387.7422803362461 -771.8520352883683 -4656.073045636208  385.0994547030623 599.0614843459668 4772.426936520493  928.1677856893941 -710.2151271304687 -788.4984585899249  674.516502200213 -760.0737650504464 3560.610485991273  847.0378050647138 713.2940553476004 2239.663144147206  843.5797315713714 713.0250993340308 -2278.916765049301  432.5578580864433 691.8417723348838 -4593.607111378167  149.6193436534874 -686.5798102219388 5099.711251362125  670.0151731496702 -700.0100237409546 -3636.362331026438  470.2163600162897 -1369.109281194241 -3763.143036919009  694.8055898489059 -1357.635519314646 -2585.493195655072  481.1460262176813 -1937.503874270849 -2486.690427521117  674.1835655212046 -1832.680469467265 -1222.375043796918  427.4479139088093 -2320.46824369768 -1039.855378072878  604.9485186256211 -2088.465635626793 262.7039156674005  320.8313915694912 -2480.069684525624 474.7136892455121  462.6686171887117 -2148.531560756209 1800.517268288445  167.7392632397313 -2402.4856990023 1916.68015787969  296.2343903606412 -1945.100176663989 3168.304104277957  -11.52244235318979 -2087.78021975567 3175.876730060847  702.4160195654811 -1694.128761368051 1516.875633081543  670.0607986205342 700.0904208348751 3636.42065661283  681.0441605806604 1365.506929264499 2674.583016818436  820.770035608996 1320.51965425444 1208.160968138586  110.6234017786446 -1536.366187722226 4252.147814137496  403.2316275514984 -1352.321312187721 4005.027411200872  469.9968308287268 1289.72535797093 3879.990528333603  455.123711626213 1904.41651949478 2715.160053006725  929.8383127333673 -692.8894927958064 788.3296263620589  826.4361953639393 -1430.183603972537 91.34812781262818  848.8249679347271 -714.0217544087136 -2217.680120644273  149.522196570893 686.8588600960242 -5099.72923418969  663.4441889261919 682.1050968131724 -3686.543003656391  675.8929154886731 1357.566937880771 -2728.505063332067  208.0269798730046 -2328.306345410807 -2158.821083705624  -145.7593864492744 -2432.017211371075 1814.492713103474  201.2746815473988 -1393.692171194499 -4365.763417262975  815.3812088120693 1335.933561302757 -1248.670959150093  616.4085206999888 1922.977398023477 -1505.594458604168  439.0352196920509 1853.897386734172 -2921.814487266287  348.8081184489943 2324.374804174018 -1625.601163545228  154.0767439417588 2166.103699778821 -2845.550818634251  45.31860888862569 2515.214925320652 -1476.02570010565  -158.1044767048905 2232.108882990456 -2626.267460853295  -261.3642204775205 2474.509609554712 -1112.649413113703  -457.4737123924024 2108.546383952542 -2010.323897747136  -50.40555239964169 2623.245318079984 98.50265972728596  -319.2951811024111 -2012.508876970297 2926.317712416193  -441.3088559354886 -2245.455184730638 1446.812589027049  -536.8410189129502 2202.990599365866 -542.7666318051463  -702.914537265639 1723.130783436304 -1376.016298735671  -747.6517460431646 1724.370840449657 123.0598765741744  -869.5958381150654 1138.871792858236 -858.7179236672142  -880.8130300612669 1081.417686234355 801.0903333487144  -774.9927478549998 1070.861817958976 -2449.057638678328  -718.8345037402692 1589.199390958333 1727.183125166962  -915.7414784030145 471.5814445620171 -1558.954144601014  -814.9429685438595 882.6237487963725 2356.90456383293  -783.247140085143 299.3714192547983 -3144.329368039537  -876.5254113352315 -341.1546351945257 -2240.780215345273  -611.5114335174512 1318.844569119694 3206.740784448047  -137.3488645506511 -1057.858961567368 4821.86782883758  -597.724257016167 -1731.225123346451 2382.79480310788  -705.7982151774106 -456.3586286165473 -3593.029658102686  -762.978251245493 -1080.659611972585 -2542.186641399932  -935.6509929121943 299.7242088645403 1344.964176837263  -333.3193057229002 1726.362756758498 -3562.790504526772  -672.8942822095582 561.1788967883604 3720.071010752238  214.7071423490067 1740.057754502398 3783.707547216454  -904.3146796029167 -893.8253019981764 -901.7975113204609  -573.7256079140425 180.7876086390631 -4332.574295752391  -449.1286086847061 992.2871303624537 4299.95136636419  -553.3232568031067 -1148.663600773838 -3742.541265387318  -581.2924144810248 -1727.418299580542 -2506.43383019991  -491.7951466551309 1944.752313036467 2405.120414865836  -253.6145147847726 -2537.661588287586 343.7748496780944  -471.7659603641624 166.5440877908625 4690.711845743933  -693.223529215412 -242.999477934009 3750.247386774006  -337.066339959179 -1714.987771712791 -3575.440240861713  -339.7313312143182 -2207.955575853535 -2212.197668571888  -289.3889321056234 -1074.475885409613 -4605.369619305979  506.7434339771894 2267.957490048441 -150.5716305827036  -675.8788516300951 -1869.863867991643 945.1741022146908  -806.6488407033365 -1262.354736332458 1652.351410462505  179.7617492127515 2262.57470624965 2480.567662051265  -64.72867311174709 2028.127509527955 3314.290790808577  -22.31554926545884 1513.867419886593 4325.410287454535  -268.6338130772664 635.5016620270005 4983.774257329242  -448.437657357728 -1398.716081106814 3793.950289931255  235.2658148059408 1700.664320465543 -3824.126536497261  -558.4924614665532 -2100.997274344462 -1164.698363101361  -73.80527064175098 1293.597955801486 -4607.294430492644  -162.9466552242664 551.2834739854086 -5160.585225026303  -111.9530624865664 2444.07595184279 1814.22804647734  -209.5125239433381 -390.256113794459 5176.039823316642  -72.50601176259256 -2128.158803296715 -3042.57674837248  -451.4878300794078 -631.8306100056095 4576.628693522535  -693.0855467422919 -1033.947809276389 3145.182179374778  -856.2805823663182 -500.9500491166886 2357.833503416263  -934.3294915668833 -655.4972708254202 746.2816705243447  -967.9807534295699 -85.36410417421185 -461.8264697856467  -381.1255003050184 1103.160344480875 -4376.006330341163  -576.1702040457353 1232.211627417736 -3524.57923694283  -85.60482767293657 -2463.309142918942 -1748.788102430501  -34.06622760218949 1910.065278714276 -3603.102328097707  399.4773952249284 2306.944428830796 1394.356227099508  843.3250115339827 -682.024347553412 2320.508837576984  49.57105655498847 -720.0259801278576 -5136.557464903379  159.1914826199247 -2560.819403316888 -822.8332982798813  -303.5360827482235 1649.989987218046 3781.514588299206  931.9099333329765 665.7776462262204 -805.2858859163141  634.2842749304295 1906.820532937974 1371.871051903956  744.675705403174 1734.707168940323 -60.89337376840071  -753.0943557504814 -1565.764113781918 -1347.323656572681  -332.855179522828 2471.878307149193 415.6238513783879  -554.1575170385635 2133.394200746715 975.8974130461207  -54.14362711645212 -1570.955363973795 -4229.235978474167  -231.1320366763144 -283.6408520725865 -5179.875271799215  -485.4101665642988 -459.2967084798287 -4562.493355698231  232.5557315595204 2553.294239571841 -272.8804419979043  27.32702437645763 -2608.742329576995 593.7094487538441  548.125674484543 -1646.582328312189 2905.865471092597  933.5013310728295 674.4927657205182 714.6933303920401  432.8796697478202 -686.4959890718503 4596.132430143643  -831.0132638891317 -1409.03674785089 131.4378745943268  -178.6723007678834 -1701.086856577241 3907.8934952605  482.881437630761 1250.273502856975 -3887.758642822467  -837.5038884512159 208.8755670246229 2714.752233051721  224.4649155347307 -1929.587208311137 -3363.724518609238  243.6475132757158 1231.038209692749 4512.115314643523  143.4994705695902 2537.375356617383 1122.871198411434  -616.3602101825883 1639.287980354154 -2505.134507084485  821.2449916973948 -1270.979910630345 -1391.848995779573  -15.18052314325051 661.5696214976396 5178.086821705474  745.6475153316195 -1229.430869601076 2421.215489367406  -945.8076979679169 631.3472783061322 -120.9487369244701  -516.3823833250207 -2253.946104930553 51.46008590486445  -317.1132268846571 -2454.226269505659 -885.0689714762044  878.5768931892571 1168.712544591544 -37.03635666863082  -222.0397689232131 1262.930938407433 4506.133625146204  275.9788958128741 1146.432890384009 -4554.037907990923  -333.9302006553889 187.5416020821988 -5030.067450709898  -366.3535867467581 2292.783333815431 1696.944524788295  834.4246384407038 -1182.031801043712 1464.385115604007  -68.67196627316793 -2606.908035079384 -536.4949734059976  -631.8172536634446 672.7428443028139 -3857.384604314336  -433.6586858289923 565.9499568611666 -4665.192838539519  -279.8961792103545 2094.236110742602 2802.621364521051  -696.6161145681073 -1870.019307956592 -298.171319604263  348.3411356110432 301.292971344633 4975.862011084147  198.3513208941237 306.2166380430838 5214.390673631478  75.7046887197168 -346.6979147434568 5298.04129170927  230.7620902480249 -347.3
[...]
<PointData  Vectors="Self-Gravity"> 
<DataArray  type="Float64"  Name="Self-Gravity"  NumberOfComponents="3" format="ascii">-1.9021292069881928e-05 -1.1718114963823830e-06 -6.3401432015403470e-05  -1.0267266790650060e-05 -2.7562745677168477e-06 6.2572506859043746e-05  -5.6039776051615883e-05 -1.3917197204324821e-07 6.0042253119518467e-05  -1.0494856790594745e-04 1.4625625295845699e-06 5.8635130049624014e-05  -1.3566278000237762e-04 -2.3743165870063612e-06 5.4646277462965653e-05  -1.7269216404565719e-04 7.9141252983089007e-07 4.4391792505320207e-05  -2.1799329588716716e-04 6.4203456773822562e-07 3.9392069667179494e-05  -2.5579826332963902e-04 -4.7029958832193214e-07 3.2246311779298338e-05  -2.8300823347246793e-04 2.2210449168245970e-06 2.6293793511459947e-05  -2.9194980919740581e-04 5.3485714514832931e-06 1.7671782050207932e-05  -3.2366311862864393e-04 2.5626030341975535e-06 9.7690492164979112e-06  -2.9089987979594709e-04 -3.6475170348556180e-06 1.7012858697399165e-06  -3.1435941156014084e-04 -5.7419555820829451e-06 -6.5356827231387322e-06  -3.0614801007846726e-04 -7.0967145852482154e-06 -1.2385079749021468e-05  -2.8548827479533360e-04 -3.8828598924067464e-06 -2.5790440256306860e-05  -2.5154280844951594e-04 9.0203746086129533e-07 -3.3304017963585573e-05  -2.1756492674600660e-04 -6.0240177284422886e-07 -3.8458570428866906e-05  -1.7311868944449983e-04 2.4503181517266172e-07 -4.2771239528459358e-05  -1.2838827706097066e-04 -2.5208057215335299e-06 -5.0536182430897278e-05  -8.9251002483226884e-05 3.2199674119852189e-06 -5.2147357799015941e-05  -7.0315106120650509e-05 9.6669419554161468e-07 -6.3964575538643612e-05  -1.2017508098560100e-04 3.2373447794212650e-05 5.0908153035737553e-05  -1.2042848481679552e-04 -3.0192769904991368e-05 -5.0930615782299434e-05  -2.9448705267445623e-04 2.9176989527533063e-05 7.6879581609859029e-06  -2.0134105991409545e-04 3.0727163830612636e-05 -3.6374602464762934e-05  -2.5961805215889345e-04 -3.1598153083785887e-05 -2.6547831327280234e-05  -2.5113585681583311e-04 -2.8187962891104737e-05 2.4645155024187540e-05  -1.3022011574928522e-04 -3.0030144120651562e-05 5.0312678459252926e-05  -4.7081665512475476e-05 3.3809678185442809e-05 -5.5617203890777539e-05  -1.9983033194124155e-04 2.9798235112428151e-05 3.9210165787404169e-05  -1.4302197723557267e-04 6.7103263758368077e-05 3.9658445156554724e-05  -2.0420633054962911e-04 5.8260974523958161e-05 2.7144363421945657e-05  -1.5258936477346242e-04 9.4544005314260948e-05 2.6049804829669785e-05  -2.0779849676051961e-04 8.3993181683756697e-05 1.2568942336053761e-05  -1.2425784301490369e-04 1.0006190866782922e-04 1.1631785046317850e-05  -1.7448668323215616e-04 9.2563792333828161e-05 -4.6275712407994037e-06  -1.1583506563013887e-04 1.1253223323028078e-04 -5.1327060407224258e-06  -1.4343334875753191e-04 9.8049383058736202e-05 -2.1272601002059282e-05  -4.1133170709193574e-05 1.1298389253577383e-04 -2.5952418274932229e-05  -9.0031179775828290e-05 8.9479484788777822e-05 -3.3478431859722171e-05  6.9199755008528670e-07 1.0161222546168830e-04 -3.5006968548647368e-05  -2.0967896778743548e-04 7.6986575007633058e-05 -1.5611443065196375e-05  -1.9703801615808588e-04 -3.3166812265917552e-05 -3.5474486470724068e-05  -2.0579163860542780e-04 -5.7581960056903818e-05 -2.7682549946867061e-05  -2.4815382540564388e-04 -5.4948743641046443e-05 -1.4712019356811770e-05  -3.9632685959711460e-05 7.9516823535659875e-05 -5.2222600183400018e-05  -1.2100127169317721e-04 6.3614228768275310e-05 -4.4361925468987846e-05  -1.5163049944813762e-04 -5.8666585178362076e-05 -3.8967583425808575e-05  -1.5146232709819417e-04 -8.5918473508075726e-05 -2.7746690535439446e-05  -2.9347425704076823e-04 2.7449836316886201e-05 -9.9554243155903309e-06  -2.3884818665599874e-04 6.2245088142768581e-05 -6.2555608747425580e-07  -2.4733384263201746e-04 2.7707447402778881e-05 2.2455647266856057e-05  -4.7309575871226997e-05 -3.9314053402237835e-05 6.0469109028736689e-05  -1.9460543253716238e-04 -3.0782511404763376e-05 3.6354442036885493e-05  -2.1044642054818494e-04 -5.9949262851978408e-05 2.9688406711399664e-05  -6.0260528894083601e-05 9.8565032529602251e-05 2.3785751012002526e-05  3.4451431346985209e-05 1.1407883117747693e-04 -2.0961850945433371e-05  -6.3817367123671255e-05 7.1519698057426591e-05 5.1699014623349949e-05  -2.6406886661845376e-04 -5.3420660553609925e-05 1.3188737785245356e-05  -1.8307508142400013e-04 -8.1627171073195279e-05 1.5607018088539453e-05  -1.3682431995245607e-04 -8.3976363077171379e-05 2.9337787452724196e-05  -1.2668130363799215e-04 -1.0217083044282897e-04 1.8760647075032862e-05  -4.6979538397111689e-05 -1.0085645417397338e-04 3.3350571415293138e-05  -1.2155104169350940e-05 -1.1632253336982216e-04 1.7556278938284765e-05  5.7870068121862040e-05 -1.0670559025169439e-04 2.8129037168337809e-05  7.7983198539717166e-05 -1.1520275761598432e-04 1.2367675311297343e-05  1.2936693701574335e-04 -9.4007145788453490e-05 2.3252185956388875e-05  1.1287345486982559e-05 -1.1935657282321169e-04 -1.5092684674797537e-06  1.0329998296174515e-04 8.9670097968108046e-05 -3.0573482225727686e-05  1.3093330352465657e-04 1.0296920632608153e-04 -1.7060512328038415e-05  1.6278414787593534e-04 -9.4564767800785175e-05 6.6877253121542022e-06  2.1650680318557164e-04 -7.4459285844120969e-05 1.3910889243048985e-05  2.3221022425587421e-04 -7.7666332722273315e-05 -2.9796482797466669e-06  2.6411704320715066e-04 -4.8817681055080005e-05 1.0068237204382973e-05  2.6938907463289067e-04 -4.2473392799460714e-05 -9.6658513199977881e-06  2.4191005366506414e-04 -4.0942668378601165e-05 2.5944054033767008e-05  2.2652077883337243e-04 -6.5179014912842412e-05 -1.9811646557185189e-05  2.9582049717680458e-04 -2.0063211880188295e-05 1.7459801662010449e-05  2.5684411026992860e-04 -3.9919203364597516e-05 -2.6394066699571771e-05  2.5377696743806661e-04 -1.0948084980239834e-05 2.9949833161332952e-05  2.7347383080949075e-04 1.0969363421787839e-05 2.2162757703840103e-05  1.8863537353876639e-04 -6.0228762364759985e-05 -3.4651777361810607e-05  5.1899611343406405e-05 4.7517839102330011e-05 -5.1128256691010301e-05  1.6356327003585761e-04 7.6714153293168914e-05 -2.5528962084494117e-05  2.2940685999850414e-04 1.9958568294709913e-05 3.7302982774058317e-05  2.3222287405743532e-04 4.3721234059017844e-05 2.9340821216710655e-05  2.8724756838774531e-04 -9.0291357233117240e-06 -1.1766947553889370e-05  1.1137857985265308e-04 -8.3239290582574557e-05 3.9719546452704704e-05  2.1402762100468934e-04 -2.6597281576234771e-05 -3.6742895656720043e-05  -6.7003475924751332e-05 -8.6296805216724585e-05 -4.4212133967337931e-05  2.9439979885915958e-04 3.9337850272382185e-05 8.5195031892971713e-06  1.7303613385954441e-04 -5.7198650235688808e-06 4.4885322130869825e-05  1.5266701609392699e-04 -4.1210998584851527e-05 -4.6053824716759404e-05  1.6656050374381579e-04 4.9959174676781923e-05 4.1204401019037137e-05  1.7134760557589008e-04 7.4869982431099991e-05 3.2318334194465813e-05  1.6137551183890557e-04 -8.2433355181347402e-05 -2.4238877394902393e-05  9.4104594711710222e-05 1.1983267145881535e-04 -3.8863615928637104e-06  1.3930311518759611e-04 -1.0551799425284713e-05 -4.8183398080462727e-05  2.1578787644296231e-04 1.0081781307706389e-05 -3.8070728982945595e-05  1.0582580459261761e-04 8.2570811407604074e-05 3.8577923859338322e-05  1.0525452628495483e-04 9.7063155452786849e-05 2.3739911677993949e-05  8.5472542241852911e-05 4.6336011789218830e-05 5.1778086234496504e-05  -1.4665067161501142e-04 -9.1533748171527518e-05 -1.2467977601234747e-07  2.1401065645081774e-04 8.4103996356756815e-05 -1.1952106122804368e-05  2.4837009672005615e-04 4.9022050103300963e-05 -1.8070925701459505e-05  -7.0517530709688018e-05 -1.0703107715741332e-04 -2.9343127383575568e-05  7.6289278628409838e-06 -9.4424929162038084e-05 -3.8569198053426201e-05  9.6545893774090743e-06 -7.1822195781901329e-05 -5.2439093299869679e-05  8.5472345644069909e-05 -3.1616633516260329e-05 -5.8429349104003774e-05  1.4574014929176585e-04 6.0347303499303092e-05 -4.3148749924205953e-05  -7.7621902474209900e-05 -7.7897985991969620e-05 4.3414964614148433e-05  2.0310414493607360e-04 9.7486157941995672e-05 1.1770626508739962e-05  2.4949239837262244e-05 -6.2763335001065972e-05 4.7991240171303772e-05  4.9063359631804033e-05 -3.1860753498314345e-05 5.9422842527377307e-05  3.9777477770091822e-05 -1.2284126421866873e-04 -2.0142355348378579e-05  6.7006737604456817e-05 1.2174095870441860e-05 -6.4868301179516334e-05  1.8739028825927689e-05 1.0018094072983890e-04 3.3401888667604057e-05  1.4537204072195351e-04 2.7803274862535847e-05 -4.6125520438195655e-05  1.9701664243079788e-04 3.7065311157035561e-05 -3.2161040654368583e-05  2.6759049674299884e-04 2.2105247403100887e-05 -2.4348266909507881e-05  2.9501126388125742e-04 2.9622962495689410e-05 -8.6543281471027307e-06  2.9953455228110053e-04 4.6743383971860674e-06 6.4766544781022712e-06  1.3637792014684885e-04 -4.6291131232676332e-05 5.1254209141878458e-05  1.8186940600756871e-04 -6.3084188525968594e-05 3.4709036952490258e-05  1.6475667427043568e-05 1.1833839126005288e-04 2.4142009207686941e-05  2.0069194918281514e-05 -9.2450924471332085e-05 4.5919119731532230e-05  -1.2481629531424775e-04 -1.0919789638991182e-04 -1.3675614091748969e-05  -2.5601848061875861e-04 2.3695209190918781e-05 -2.3487707488375038e-05  -1.0615699689665150e-05 3.6875817258493839e-05 5.7358827017694292e-05  -4.8267569368097975e-05 1.2339504557538648e-04 9.8081766726930496e-06  1.1997896225110332e-04 -7.8555737119898657e-05 -4.3025628006197550e-05  -2.7257845750600974e-04 -2.2591234241619554e-05 1.0020105795961138e-05  -1.9275167082810280e-04 -7.8164321044205210e-05 -1.5016564364439111e-05  -2.4800879895323547e-04 -8.1682915851072791e-05 -3.6193950198235403e-06  2.2615481076381354e-04 6.1464045393804011e-05 1.3188256100378996e-05  1.1212066439525560e-04 -1.0907684475819972e-04 -5.2205603767258351e-06  1.6844772356905985e-04 -8.3462590542105811e-05 -9.3165676226236123e-06  1.6463551593322228e-05 8.2110213544267310e-05 5.0906254004199628e-05  7.7985815301357899e-05 1.4880166857568154e-05 6.0104352274768661e-05  1.4908981623072538e-04 2.5823701269403922e-05 4.8234232705742187e-05  -6.9111849829502474e-05 -1.1776549114281475e-04 3.0596005045416120e-06  -1.5332581301653543e-05 1.2506426281891567e-04 -7.6161677335472737e-06  -1.7587438162790063e-04 7.0928142851029368e-05 -3.2852388325441705e-05  -2.7587860252771974e-04 -2.7211463138992974e-05 -8.7243855342188988e-06  -1.3313228961870884e-04 2.8031764407850399e-05 -5.0671385187208366e-05  2.5383251982226662e-04 5.7786348850993521e-05 1.1983510014790601e-06  5.3385282095949266e-05 7.7996839055721471e-05 -4.3502342793565510e-05  -1.4746506882943084e-04 -5.5545195532020030e-05 3.9855515200992881e-05  2.7193132015746174e-04 -5.4680432742471643e-06 -2.8834150717460314e-05  -6.3884375377820204e-05 7.9334209599745596e-05 3.2599191548247354e-05  -7.6390105287302699e-05 -5.7003799819102099e-05 -5.1561232783976539e-05  -4.2736273244292988e-05 -1.1269560011545550e-04 -1.3070609987234770e-05  1.7729279785885329e-04 -7.3766042225978896e-05 2.8336929599003996e-05  -2.7014901644441676e-04 5.6819074574443876e-05 9.6210681554400420e-06  -1.0909763538362006e-06 -3.8056901993255893e-05 -6.1579323242609926e-05  -2.3273251260304189e-04 4.8316780721444494e-05 -2.6131235382036986e-05  2.9358494809728883e-04 -3.3541946511688894e-05 1.9538592031905765e-06  1.5013895332312394e-04 1.0007801466491803e-04 1.2021397984175862e-06  1.0068434797377671e-04 1.1386241318678378e-04 1.0879215787530096e-05  -2.6544084116139990e-04 -4.7226730706670408e-05 -4.5063172311839272e-07  6.3549453688470579e-05 -5.1623026776815849e-05 -5.2788404346933875e-05  -6.8241490967573088e-05 -5.3346621737335763e-05 4.9131974307059064e-05  1.3220494427662008e-04 -1.3361230046918129e-06 5.5755013039176934e-05  1.2393348768730607e-04 -1.0391654880676297e-04 -1.6319694765608052e-05  -2.7120389022639035e-04 5.0127584399273829e-05 -1.4396117287561254e-05  2.2416852402953195e-05 1.2263221714559308e-04 4.5305656972461442e-06  1.8932905282826448e-04 -2.5856475453768507e-05 3.8471883738409964e-05  1.3711765160210809e-04 -2.2856367032664850e-05 5.1433613383459388e-05  9.1151124162805222e-05 -1.0134920340242451e-04 -3.2067255682088318e-05  2.1439574157963584e-04 8.3496894621627729e-05 3.5169325073786746e-06  -1.0383563585063524e-04 -6.4212499833087479e-06 -5.7875810886046783e-05  -4.9704415061624912e-05 -1.9690987191837153e-05 -5.6531175892782318e-05  -4.7511484193270256e-05 9.2306444793322464e-06 -6.2008240334840035e-05  -8.3821426459885386e-05 1.8283471685842106e-05 -5.7958223351579802e-05  -5.8742540053764872e-05 -3.2421824976606668e-05 -6.0318871380892200e-05  -1.9782181515988954e-05 -1.5946451235420624e-05 -5.6741616535103601e-05  2.7059763813352929e-05 7.1942102740924794e-06 -6.4330760845906192e-05  -1.2928140035828363e-07 2.1319722324726000e-05 -6.4728433789432944e-05  3.3428804128879531e-05 -1.4418036343668672e-05 -6.1788610756978397e-05  -3.9956678226699203e-05 -2.0502049996491777e-05 6.6202438784164209e-05  -8.3313983211914873e-05 -1.8889177228259661e-05 5.9200603954924249e-05  -7.0418061650077461e-05 2.2026604598168543e-05 5.4393719776942847e-05  -1.9200978710388848e-05 1.7100265593718858e-05 5.6861552023299457e-05  1.8880759647514955e-05 -1.7386196871313765e-05 6.1644342577136561e-05  -2.9590944787403341e-07 -3.6356531163810481e-05 5.9657146259068795e-05  2.8276572544706397e-05 9.1838902924825464e-06 6.1123039734314991e-05  5.7831931413972183e-05 -6.5844145045620226e-06 6.2211017232914170e-05  4.6316942517973948e-05 3.2258185700107813e-05 5.9025086300497569e-05  -1.4055823008797021e-04 1.5139798979897761e-05 5.4706485487760339e-05  -1.0061154630447653e-04 2.2343376418800243e-05 5.4393051686033301e-05  -1.1066278374418773e-04 -1.8871179039774406e-05 5.2929335427286283e-05  -1.5991179485746741e-04 -1.7714503077708615e-05 4.7209557394206320e-05  -7.4091404576242156e-05 3.4869231945860245e-05 5.4830699144584222e-05  -9.1134562512919991e-05 -3.6529462245683708e-05 5.4507076280321447e-05  -2.2781719227495039e-04 1.2470798126070445e-05 3.2598159218629507e-05  -1.9058462550922072e-04 2.1297879681521318e-05 4.3628206437136113e-05  -1.9583147115624275e-04 -1.5273554533304954e-05 4.3013212851995255e-05  -2.3521891977355402e-04 -1.5222447875140222e-05 3.3983413474649840e-05  -1.6756953971993078e-04 4.1271550867730315e-05 4.9567858089977764e-05  -1.6893756900017247e-04 -2.9212174554012304e-05 4.5557655528023761e-05  -2.6452844896705064e-04 -1.9842140468440947e-05 3.1492596675000894e-05  -3.0990318272211656e-04 -1.2817440377852485e-05 2.7685187497524397e-05  -2.9386856115709537e-04 1.6256274155491018e-05 2.0225144460571621e-05  -2.5583523661348466e-04 1.5040905729275639e-05 2.6887493552233613e-05  -2.4472912585958817e-04 -3.3925062313442971e-05 3.1058655777968515e-05  -2.4474708068044260e-04 3.2332201218264444e-05 3.1319331173464882e-05  -3.3008088909311582e-04 2.0278308696598087e-05 3.0722333142591475e-06  -3.1521348960067408e-04 2.1204738237382001e-05 1.4498984655372755e-05  -3.1874353487313387e-04 -1.4407541886621196e-05 1.8820961758172152e-05  -3.1522206395941636e-04 -2.0071218026829807e-05 9.0248749189073888e-06  -3.0530600163734291e-04 3.3841708736632164e-05 1.4840462046961455e-05  -2.8690275670352776e-04 -3.3457537622760243e-05 1.9175936887214275e-05  -3.0223372094056767e-04 8.3613368294848226e-06 -1.1819339390169139e-05  -3.1035041277678550e-04 1.7458986102379028e-05 -3.4039715392669659e-06  -3.2554146270961855e-04 -1.3079342384399549e-05 -3.5047152633244499e-07  -3.0984296844185162e-04 -2.3679052816343125e-05 -1.1289461957982707e-05  -3.2613124173322319e-04 3.3183201771121875e-05 3.1735079272390573e-07  -3.1891633477606254e-04 -3.1539832082798521e-05 -8.1547881394274796e-07  -2.9930325832138577e-04 -1.8518934202658338e-05 -2.0560885205140271e-05  -2.7278848058172615e-04 -1.1946117137156602e-05 -3.0446729193492903e-05  -2.8270945688017011e-04 1.4344075130482554e-05 -3.1817739689832081e-05  -2.9859088958746212e-04 1.2126149854744972e-05 -2.5459973457364205e-05  -3.0296663155226789e-04 -3.9084082596016121e-05 -1.8829459494639463e-05  -3.0168548608886246e-04 2.6254553577165891e-05 -1.8990418010018333e-05  -1.9784338716641683e-04 1.5618149285384783e-05 -4.4899702727143103e-05  -2.2934980544932134e-04 1.1660897808703973e-05 -3.9437635335601331e-05  -2.3934972631734722e-04 -1.5644640820210570e-05 -3.5158005812982146e-05  -1.9868888942712115e-04 -1.6192800186703621e-05 -4.0840511684410387e-05  -2.3840130952094998e-04 2.6778766436157541e-05 -2.9839517558565504e-05  -2.4907522726730743e-04 -2.8759980515906800e-05 -3.2277154794742050e-05  -1.6435347099771544e-04 -1.2049990994486360e-05 -4.7888831382988657e-05  -1.1959582088808342e-04 1.6841856910865247e-05 -5.3581855671524827e-05  -1.6444470759234146e-04 1.8291988662872573e-05 -4.9601366778603727e-05  -1.8646965836680100e-04 -3.6801064839335671e-05 -4.5533087480874967e-05  -1.7148716816780071e-04 2.9225916391886150e-05 -4.6576755582412544e-05  -9.8284120089643900e-05 3.1913829507384260e-05 -4.8947258386533121e-05  -1.7299997224450635e-04 5.1554129022503586e-05 3.9663648239633768e-05  -1.3112366706070591e-04 5.1899363509193699e-05 4.8475876129842645e-05  -1.0716866300504361e-04 6.9850127804750971e-05 4.7424000236915975e-05  -8.3851541397144639e-05 4.9098199634047069e-05 4.5237155209087411e-05  -5.4524856025526575e-05 4.5627832427541965e-05 5.1304776482629078e-05  -1.9729706352242970e-04 -5.2765832482170717e-05 -4.1341872664458134e-05  -1.3515307748514983e-04 -5.0090062262957475e-05 -4.7665627819474439e-05  -1.1440336661577967e-04 -5.9963003176528927e-05 -4.6726324126889058e-05  -9.1328370332033503e-05 -4.9600115312166573e-05 -5.5591984252157116e-05  -4.7553481143970704e-05 -4.4500307289817382e-05 -5.4444380950878355e-05  -2.9427627223552573e-04 4.3411019397800709e-05 -3.6447649644521134e-06  -3.0804812513536252e-04 4.3363273506858910e-05 2.0992749942739382e-06  -2.6983287422040089e-04 5.7970541378150821e-05 6.4150983392700703e-06  -2.9475700318157781e-04 4.4889379920075092e-05 1.0649544082738350e-05  -2.6127966072594493e-04 3.9993672490507652e-05 2.0854133138283046e-05  -1.7387212013845397e-04 7.0116471377683513e-05 -3.9321923547407222e-05  -2.0763199990265788e-04 5.7549924001262752e-05 -3.6295211571132329e-05  -1.6650131489648399e-04 4.8380906594391682e-05 -4.2808907951261302e-05  -1.3275262128881660e-04 4.4231913705509979e-05 -5.0315412098824773e-05  -2.3337024858703865e-04 4.7731442601698958e-05 -3.2334365142932484e-05  -2.6593495941189390e-04 3.9364405594484252e-05 -2.7344035641663948e-05  -2.1424277094084790e-04 5.8310507241886890e-05 -3.0083546904055442e-05  -2.4437227827058818e-04 -4.3307753134322075e-05 -2.8386022577062570e-05  -1.8984221839272043e-04 -4.5408190869691298e-05 -3.0512897044588389e-05  -2.8758958240999988e-04 -5.4466050330130298e-05 -2.3885574275316563e-05  -2.5151192247364429e-04 -5.9036161902365838e-05 -2.2409666760683163e-05  -2.9462138061892593e-04 -4.6181018564963678e-05 -1.3877104247832181e-05  -2.0863684319530866e-04 -5.0149731441760699e-05 3.5852318578732711e-05  -2.4501668228184276e-04 -4.8115744138514388e-05 3.0489657671267925e-05  -2.4152486487460671e-04 -5.3916816902528610e-05 2.1487779083965421e-05  -2.6943676063864600e-04 -4.3498847805414322e-05 2.1741544039604966e-05  -2.9763795520176974e-04 -3.4128044595276950e-05 1.3380041145262770e-05  -5.0005107442851030e-05 -5.2024647418122810e-05 5.5719725152761643e-05  -1.1298004366841322e-04 -4.5222693756616792e-05 5.3066255509178956e-05  -1.3896979092546576e-04 -4.4411045351221299e-05 4.8235281269010796e-05  -1.7428061200536017e-04 -4.8221328592640264e-05 4.2451812289847395e-05  -1.1786691660942400e-04 -5.7248744170846410e-05 4.9249976020164675e-05  -7.6177548390801193e-05 6.9743369785582729e-05 -5.0065732016466468e-05  -8.7211515532328865e-05 4.3970485390667541e-05 -4.7618813259999590e-05  -4.7953169983410221e-05 5.2087958322724308e-05 -5.3420157531997592e-05  3.0684546624572593e-06 4.1507274643401487e-05 -5.9002069690849854e-05  -7.854550510007517