<?xml version="1.0"?>
<VTKFile type="UnstructuredGrid"  version="0.1"  >
<UnstructuredGrid>
<Piece  NumberOfPoints="1216" NumberOfCells="5256">
<Points>
<DataArray  type="Float64"  NumberOfComponents="3"  format="ascii">-0.03373685470656405 -0.003620050243259417 5364.628171666825  -0.06267743987392269 0.1619626284047161 -5364.778628286449  155.0964497989105 0.1299645197269787 -5297.583709797465  305.9649414163691 0.1612564997769595 -5097.868702123053  448.4968854700054 0.1502583302397733 -4771.123000253314  579.0877375595603 0.1906550338249162 -4326.578584730436  694.4632421957577 0.1000582247861753 -3776.254148473728  792.0459708300995 0.02789974679181823 -3134.561171655787  869.779604113732 -0.007889770701932442 -2417.911172014254  926.2811409482471 -0.03105430884169964 -1644.137385928652  960.5122438888578 -0.03075591266728461 -831.7798374342176  972.0435716900313 -0.01778606853168995 -0.0354383281025253  960.5201787251992 -0.03593460508790087 831.7605572419411  926.3033362522308 -0.02667646203526678 1644.135473054033  869.7904062223389 -0.004104862393581623 2417.857933458849  792.0795610574996 0.1065948580083955 3134.445842769434  694.556394254718 0.1215345752029472 3776.224644775187  579.2140205293086 0.1141887506773614 4326.632912338098  448.6704825456457 0.1523181642037318 4771.190407110832  306.0700212215692 0.1121650066783703 5097.876336455406  155.16117590468 0.04493079353663624 5297.557348945115  387.7422803362461 -771.8520352883683 -4656.073045636208  385.0994547030623 599.0614843459668 4772.426936520493  928.1677856893941 -710.2151271304687 -788.4984585899249  674.516502200213 -760.0737650504464 3560.610485991273  847.0378050647138 713.2940553476004 2239.663144147206  843.5797315713714 713.0250993340308 -2278.916765049301  432.5578580864433 691.8417723348838 -4593.607111378167  149.6193436534874 -686.5798102219388 5099.711251362125  670.0151731496702 -700.0100237409546 -3636.362331026438  470.2163600162897 -1369.109281194241 -3763.143036919009  694.8055898489059 -1357.635519314646 -2585.493195655072  481.1460262176813 -1937.503874270849 -2486.690427521117  674.1835655212046 -1832.680469467265 -1222.375043796918  427.4479139088093 -2320.46824369768 -1039.855378072878  604.9485186256211 -2088.465635626793 262.7039156674005  320.8313915694912 -2480.069684525624 474.7136892455121  462.6686171887117 -2148.531560756209 1800.517268288445  167.7392632397313 -2402.4856990023 1916.68015787969  296.2343903606412 -1945.100176663989 3168.304104277957  -11.52244235318979 -2087.78021975567 3175.876730060847  702.4160195654811 -1694.128761368051 1516.875633081543  670.0607986205342 700.0904208348751 3636.42065661283  681.0441605806604 1365.506929264499 2674.583016818436  820.770035608996 1320.51965425444 1208.160968138586  110.6234017786446 -1536.366187722226 4252.147814137496  403.2316275514984 -1352.321312187721 4005.027411200872  469.9968308287268 1289.72535797093 3879.990528333603  455.123711626213 1904.41651949478 2715.160053006725  929.8383127333673 -692.8894927958064 788.3296263620589  826.4361953639393 -1430.183603972537 91.34812781262818  848.8249679347271 -714.0217544087136 -2217.680120644273  149.522196570893 686.8588600960242 -5099.72923418969  663.4441889261919 682.1050968131724 -3686.543003656391  675.8929154886731 1357.566937880771 -2728.505063332067  208.0269798730046 -2328.306345410807 -2158.821083705624  -145.7593864492744 -2432.017211371075 1814.492713103474  201.2746815473988 -1393.692171194499 -4365.763417262975  815.3812088120693 1335.933561302757 -1248.670959150093  616.4085206999888 1922.977398023477 -1505.594458604168  439.0352196920509 1853.897386734172 -2921.814487266287  348.8081184489943 2324.374804174018 -1625.601163545228  154.0767439417588 2166.103699778821 -2845.550818634251  45.31860888862569 2515.214925320652 -1476.02570010565  -158.1044767048905 2232.108882990456 -2626.267460853295  -261.3642204775205 2474.509609554712 -1112.649413113703  -457.4737123924024 2108.546383952542 -2010.323897747136  -50.40555239964169 2623.245318079984 98.50265972728596  -319.2951811024111 -2012.508876970297 2926.317712416193  -441.3088559354886 -2245.455184730638 1446.812589027049  -536.8410189129502 2202.990599365866 -542.7666318051463  -702.914537265639 1723.130783436304 -1376.016298735671  -747.6517460431646 1724.370840449657 123.0598765741744  -869.5958381150654 1138.871792858236 -858.7179236672142  -880.8130300612669 1081.417686234355 801.0903333487144  -774.9927478549998 1070.861817958976 -2449.057638678328  -718.8345037402692 1589.199390958333 1727.183125166962  -915.7414784030145 471.5814445620171 -1558.954144601014  -814.9429685438595 882.6237487963725 2356.90456383293  -783.247140085143 299.3714192547983 -3144.329368039537  -876.5254113352315 -341.1546351945257 -2240.780215345273  -611.5114335174512 1318.844569119694 3206.740784448047  -137.3488645506511 -1057.858961567368 4821.86782883758  -597.724257016167 -1731.225123346451 2382.79480310788  -705.7982151774106 -456.3586286165473 -3593.029658102686  -762.978251245493 -1080.659611972585 -2542.186641399932  -935.6509929121943 299.7242088645403 1344.964176837263  -333.3193057229002 1726.362756758498 -3562.790504526772  -672.8942822095582 561.1788967883604 3720.071010752238  214.7071423490067 1740.057754502398 3783.707547216454  -904.3146796029167 -893.8253019981764 -901.7975113204609  -573.7256079140425 180.7876086390631 -4332.574295752391  -449.1286086847061 992.2871303624537 4299.95136636419  -553.3232568031067 -1148.663600773838 -3742.541265387318  -581.2924144810248 -1727.418299580542 -2506.43383019991  -491.7951466551309 1944.752313036467 2405.120414865836  -253.6145147847726 -2537.661588287586 343.7748496780944  -471.7659603641624 166.5440877908625 4690.711845743933  -693.223529215412 -242.999477934009 3750.247386774006  -337.066339959179 -1714.987771712791 -3575.440240861713  -339.7313312143182 -2207.955575853535 -2212.197668571888  -289.3889321056234 -1074.475885409613 -4605.369619305979  506.7434339771894 2267.957490048441 -150.5716305827036  -675.8788516300951 -1869.863867991643 945.1741022146908  -806.6488407033365 -1262.354736332458 1652.351410462505  179.7617492127515 2262.57470624965 2480.567662051265  -64.72867311174709 2028.127509527955 3314.290790808577  -22.31554926545884 1513.867419886593 4325.410287454535  -268.6338130772664 635.5016620270005 4983.774257329242  -448.437657357728 -1398.716081106814 3793.950289931255  235.2658148059408 1700.664320465543 -3824.126536497261  -558.4924614665532 -2100.997274344462 -1164.698363101361  -73.80527064175098 1293.597955801486 -4607.294430492644  -162.9466552242664 551.2834739854086 -5160.585225026303  -111.9530624865664 2444.07595184279 1814.22804647734  -209.5125239433381 -390.256113794459 5176.039823316642  -72.50601176259256 -2128.158803296715 -3042.57674837248  -451.4878300794078 -631.8306100056095 4576.628693522535  -693.0855467422919 -1033.947809276389 3145.182179374778  -856.2805823663182 -500.9500491166886 2357.833503416263  -934.3294915668833 -655.4972708254202 746.2816705243447  -967.9807534295699 -85.36410417421185 -461.8264697856467  -381.1255003050184 1103.160344480875 -4376.006330341163  -576.1702040457353 1232.211627417736 -3524.57923694283  -85.60482767293657 -2463.309142918942 -1748.788102430501  -34.06622760218949 1910.065278714276 -3603.102328097707  399.4773952249284 2306.944428830796 1394.356227099508  843.3250115339827 -682.024347553412 2320.508837576984  49.57105655498847 -720.0259801278576 -5136.557464903379  159.1914826199247 -2560.819403316888 -822.8332982798813  -303.5360827482235 1649.989987218046 3781.514588299206  931.9099333329765 665.7776462262204 -805.2858859163141  634.2842749304295 1906.820532937974 1371.871051903956  744.675705403174 1734.707168940323 -60.89337376840071  -753.0943557504814 -1565.764113781918 -1347.323656572681  -332.855179522828 2471.878307149193 415.6238513783879  -554.1575170385635 2133.394200746715 975.8974130461207  -54.14362711645212 -1570.955363973795 -4229.235978474167  -231.1320366763144 -283.6408520725865 -5179.875271799215  -485.4101665642988 -459.2967084798287 -4562.493355698231  232.5557315595204 2553.294239571841 -272.8804419979043  27.32702437645763 -2608.742329576995 593.7094487538441  548.125674484543 -1646.582328312189 2905.865471092597  933.5013310728295 674.4927657205182 714.6933303920401  432.8796697478202 -686.4959890718503 4596.132430143643  -831.0132638891317 -1409.03674785089 131.4378745943268  -178.6723007678834 -1701.086856577241 3907.8934952605  482.881437630761 1250.273502856975 -3887.758642822467  -837.5038884512159 208.8755670246229 2714.752233051721  224.4649155347307 -1929.587208311137 -3363.724518609238  243.6475132757158 1231.038209692749 4512.115314643523  143.4994705695902 2537.375356617383 1122.871198411434  -616.3602101825883 1639.287980354154 -2505.134507084485  821.2449916973948 -1270.979910630345 -1391.848995779573  -15.18052314325051 661.5696214976396 5178.086821705474  745.6475153316195 -1229.430869601076 2421.215489367406  -945.8076979679169 631.3472783061322 -120.9487369244701  -516.3823833250207 -2253.946104930553 51.46008590486445  -317.1132268846571 -2454.226269505659 -885.0689714762044  878.5768931892571 1168.712544591544 -37.03635666863082  -222.0397689232131 1262.930938407433 4506.133625146204  275.9788958128741 1146.432890384009 -4554.037907990923  -333.9302006553889 187.5416020821988 -5030.067450709898  -366.3535867467581 2292.783333815431 1696.944524788295  834.4246384407038 -1182.031801043712 1464.385115604007  -68.67196627316793 -2606.908035079384 -536.4949734059976  -631.8172536634446 672.7428443028139 -3857.384604314336  -433.6586858289923 565.9499568611666 -4665.192838539519  -279.8961792103545 2094.236110742602 2802.621364521051  -696.6161145681073 -1870.019307956592 -298.171319604263  348.3411356110432 301.292971344633 4975.862011084147  198.3513208941237 306.2166380430838 5214.390673631478  75.7046887197168 -346.6979147434568 5298.04129170927  230.7620902480249 -347.3
[...]
<PointData  Vectors="Forcing"> 
<DataArray  type="Float64"  Name="Forcing"  NumberOfComponents="3" format="ascii">-1.9022085995865666e-05 -1.1719050839060361e-06 -6.3401432015403470e-05  -1.0268732164194528e-05 -2.7524794402095236e-06 6.2572506859043746e-05  -5.2288879904556387e-05 -1.3611374554171831e-07 6.0042253119518467e-05  -9.7548706454285894e-05 1.4663696617821337e-06 5.8635130049624014e-05  -1.2481494601158580e-04 -2.3707428901299793e-06 5.4646277462965653e-05  -1.5868446305740302e-04 7.9596304416537817e-07 4.4391792505320207e-05  -2.0119301247351832e-04 6.4450706036652071e-07 3.9392069667179494e-05  -2.3663527523072855e-04 -4.6946946370959205e-07 3.2246311779298338e-05  -2.6196248934939268e-04 2.2210808821155617e-06 2.6293793511459947e-05  -2.6953519620138500e-04 5.3481005559516569e-06 1.7671782050207932e-05  -3.0041898723935705e-04 2.5621645165582678e-06 9.7690492164979112e-06  -2.6737633054652971e-04 -3.6476444691007765e-06 1.7012858697399165e-06  -2.9111509618198696e-04 -5.7425165115737064e-06 -6.5356827231387322e-06  -2.8373287838391538e-04 -7.0970865448941293e-06 -1.2385079749021468e-05  -2.6444227875781028e-04 -3.8827411302045017e-06 -2.5790440256306860e-05  -2.3237903640918928e-04 9.0470064479844566e-07 -3.3304017963585573e-05  -2.0076246674782805e-04 -5.9943702440740091e-07 -3.8458570428866906e-05  -1.5910803642694665e-04 2.4778317525300021e-07 -4.2771239528459358e-05  -1.1753638050712221e-04 -2.5171937697928359e-06 -5.0536182430897278e-05  -8.1848684636460107e-05 3.2226152746069863e-06 -5.2147357799015941e-05  -6.6562698588560837e-05 9.6775112470184093e-07 -6.3964575538643612e-05  -1.1079766409104451e-04 1.3726386104009679e-05 5.0908153035737553e-05  -1.1111457554080317e-04 -1.5719683610495637e-05 -5.0930615782299434e-05  -2.7202810227800600e-04 1.2037626352065646e-05 7.6879581609859029e-06  -1.8502474842360496e-04 1.2372793216793526e-05 -3.6374602464762934e-05  -2.3912374674031652e-04 -1.4380086389490613e-05 -2.6547831327280234e-05  -2.3072527040166998e-04 -1.0976181734859561e-05 2.4645155024187540e-05  -1.1975814869356407e-04 -1.3316705900916590e-05 5.0312678459252926e-05  -4.3463565332597244e-05 1.7219355366273658e-05 -5.5617203890777539e-05  -1.8362277766625530e-04 1.2894035436839475e-05 3.9210165787404169e-05  -1.3165080293467882e-04 3.4037631824111110e-05 3.9658445156554724e-05  -1.8740089806504006e-04 2.5484814668464065e-05 2.7144363421945657e-05  -1.4095589773446522e-04 4.7765720267173887e-05 2.6049804829669785e-05  -1.9149452599897797e-04 3.9757034026747693e-05 1.2568942336053761e-05  -1.1392476359925967e-04 4.4047944391386490e-05 1.1631785046317850e-05  -1.5985934936326801e-04 4.2154994005528695e-05 -4.6275712407994037e-06  -1.0808058567255795e-04 5.2666218996367963e-05 -5.1327060407224258e-06  -1.3224778659498378e-04 4.6181802796958031e-05 -2.1272601002059282e-05  -3.7079426999949080e-05 5.4981520538122339e-05 -2.5952418274932229e-05  -8.2869533452265307e-05 4.2508559234548325e-05 -3.3478431859722171e-05  4.1262905136141526e-07 5.1194543477813254e-05 -3.5006968548647368e-05  -1.9269103092772481e-04 3.6093913750941754e-05 -1.5611443065196375e-05  -1.8082886547896842e-04 -1.6260514128232307e-05 -3.5474486470724068e-05  -1.8931809407093808e-04 -2.4614729764557274e-05 -2.7682549946867061e-05  -2.2829738833778633e-04 -2.3077071764905073e-05 -1.4712019356811770e-05  -3.6958301988961894e-05 4.2403850615288906e-05 -5.2222600183400018e-05  -1.1125035100019150e-04 3.0951076433704312e-05 -4.4361925468987846e-05  -1.4026360399921095e-04 -2.7517098017365025e-05 -3.8967583425808575e-05  -1.4045648728363780e-04 -3.9936570149986466e-05 -2.7746690535439446e-05  -2.7097478737988639e-04 1.0728580747633503e-05 -9.9554243155903309e-06  -2.1885655171971103e-04 2.7729033458322032e-05 -6.2555608747425580e-07  -2.2679695340787481e-04 1.0472270795401863e-05 2.2455647266856057e-05  -4.3693494401181355e-05 -2.2717180790103824e-05 6.0469109028736689e-05  -1.7855639141340133e-04 -1.4310193255085176e-05 3.6354442036885493e-05  -1.9409752633315006e-04 -2.7173259256384822e-05 2.9688406711399664e-05  -5.5232614345875315e-05 4.2351664246731819e-05 2.3785751012002526e-05  3.0926813383870472e-05 5.5364261524491442e-05 -2.0961850945433371e-05  -5.8950664016271577e-05 3.7852173492915431e-05 5.1699014623349949e-05  -2.4434295964189789e-04 -2.1176703146150292e-05 1.3188737785245356e-05  -1.6816762599423639e-04 -3.5208751568983832e-05 1.5607018088539453e-05  -1.2620747848610315e-04 -3.9211867847219524e-05 2.9337787452724196e-05  -1.1824756451488076e-04 -4.6058016694127849e-05 1.8760647075032862e-05  -4.3253744425399864e-05 -4.8551824814180433e-05 3.3350571415293138e-05  -1.1058468582034256e-05 -5.5601610826463586e-05 1.7556278938284765e-05  5.4048831837619865e-05 -5.2809750300903122e-05 2.8129037168337809e-05  7.1666340378907868e-05 -5.5467835665911181e-05 1.2367675311297343e-05  1.1830677333901018e-04 -4.3103115374638991e-05 2.3252185956388875e-05  1.0070291132813636e-05 -5.6033111888513229e-05 -1.5092684674797537e-06  9.5579264731554360e-05 4.1074400413271415e-05 -3.0573482225727686e-05  1.2026250452920605e-04 4.8763950250707860e-05 -1.7060512328038415e-05  1.4980495544902550e-04 -4.1389823032675818e-05 6.6877253121542022e-06  1.9950698419067244e-04 -3.2867254099113172e-05 1.3910889243048985e-05  2.1412759833736188e-04 -3.6048365931925296e-05 -2.9796482797466669e-06  2.4307872356032164e-04 -2.1332078990895312e-05 1.0068237204382973e-05  2.4807877466451205e-04 -1.6374743703133266e-05 -9.6658513199977881e-06  2.2316238837264218e-04 -1.5091657755840398e-05 2.5944054033767008e-05  2.0913488867025951e-04 -2.6818446088125328e-05 -1.9811646557185189e-05  2.7366194471976294e-04 -8.6818361819575905e-06 1.7459801662010449e-05  2.3712832328577646e-04 -1.8613240054153296e-05 -2.6394066699571771e-05  2.3482738405239336e-04 -3.7202822390169905e-06 2.9949833161332952e-05  2.5226475489094493e-04 2.7343209742056286e-06 2.2162757703840103e-05  1.7384554103553622e-04 -2.8383357212379416e-05 -3.4651777361810607e-05  4.8577998807098247e-05 2.1958741329588532e-05 -5.1128256691010301e-05  1.4910719288885915e-04 3.4918493622748315e-05 -2.5528962084494117e-05  2.1233232684909269e-04 8.9382869563266474e-06 3.7302982774058317e-05  2.1376506076472223e-04 1.7632741991473082e-05 2.9340821216710655e-05  2.6460626100876795e-04 -1.7959036309463970e-06 -1.1766947553889370e-05  1.0331952311012182e-04 -4.1546643963246793e-05 3.9719546452704704e-05  1.9775011736447842e-04 -1.3045406827012246e-05 -3.6742895656720043e-05  -6.1811490812026853e-05 -4.4270046408886386e-05 -4.4212133967337931e-05  2.7251836670135978e-04 1.7766479197572840e-05 8.5195031892971713e-06  1.5915839138912487e-04 -1.3531310073093023e-06 4.4885322130869825e-05  1.4180503578247741e-04 -1.7242144107914802e-05 -4.6053824716759404e-05  1.5317735308728679e-04 2.2218269213474125e-05 4.1204401019037137e-05  1.5728911129152145e-04 3.3165074223082357e-05 3.2318334194465813e-05  1.4948452039330608e-04 -3.5480979948576731e-05 -2.4238877394902393e-05  8.7972740317692190e-05 5.8576073668407091e-05 -3.8863615928637104e-06  1.2789246367853272e-04 -6.5285494997662712e-06 -4.8183398080462727e-05  1.9901760069435389e-04 4.2132330506442321e-06 -3.8070728982945595e-05  9.7674920698473570e-05 4.1152622223878184e-05 3.8577923859338322e-05  9.7040028455352257e-05 4.3756067739537028e-05 2.3739911677993949e-05  7.8474036086099178e-05 2.0377852626886698e-05 5.1778086234496504e-05  -1.3439742629674787e-04 -3.6790715425692062e-05 -1.2467977601234747e-07  1.9766388346650516e-04 3.8971342823820191e-05 -1.1952106122804368e-05  2.2885539186135863e-04 1.8552507278301780e-05 -1.8070925701459505e-05  -6.6170856097603789e-05 -5.2401329681441098e-05 -2.9343127383575568e-05  6.0647375216242351e-06 -4.5446365333643781e-05 -3.8569198053426201e-05  9.1153963618853365e-06 -3.5251904437863624e-05 -5.2439093299869679e-05  7.8975794939504328e-05 -1.6261803889967816e-05 -5.8429349104003774e-05  1.3489489525483824e-04 2.6566045352309557e-05 -4.3148749924205953e-05  -7.1932734696478380e-05 -3.6822296531180166e-05 4.3414964614148433e-05  1.8959849099540842e-04 4.6771532384019997e-05 1.1770626508739962e-05  2.3164916190994802e-05 -3.1510969003314974e-05 4.7991240171303772e-05  4.5122909182776529e-05 -1.8539583138102960e-05 5.9422842527377307e-05  3.7072366331374022e-05 -6.3835465992633316e-05 -2.0142355348378579e-05  6.1939787375551035e-05 2.7439939688981582e-06 -6.4868301179516334e-05  1.6985359995963060e-05 4.8790004174406533e-05 3.3401888667604057e-05  1.3445207958163446e-04 1.2539417230510396e-05 -4.6125520438195655e-05  1.8025072361510457e-04 1.2100153873576044e-05 -3.2161040654368583e-05  2.4687192728504493e-04 1.0012599509661039e-05 -2.4348266909507881e-05  2.7240203753551185e-04 1.3803735821826138e-05 -8.6543281471027307e-06  2.7610937070850580e-04 2.6140668328195519e-06 6.4766544781022712e-06  1.2716121193736510e-04 -1.9642791547856607e-05 5.1254209141878458e-05  1.6793449374397489e-04 -3.3327805598582066e-05 3.4709036952490258e-05  1.4405233567000034e-05 5.8868768430334066e-05 2.4142009207686941e-05  1.9246238947053941e-05 -4.6319820637619235e-05 4.5919119731532230e-05  -1.1515729234300286e-04 -5.3508011818888407e-05 -1.3675614091748969e-05  -2.3561479019264855e-04 7.2320382492702320e-06 -2.3487707488375038e-05  -9.4170077666432226e-06 1.9476920642793020e-05 5.7358827017694292e-05  -4.4420835977793431e-05 6.1577444255289128e-05 9.8081766726930496e-06  1.1263993458955423e-04 -3.8704925865875871e-05 -4.3025628006197550e-05  -2.5002796801518038e-04 -6.5237113554803529e-06 1.0020105795961138e-05  -1.7741161558872467e-04 -3.2136939062185683e-05 -1.5016564364439111e-05  -2.2999634934855028e-04 -3.9815204175413329e-05 -3.6193950198235403e-06  2.0793787306873794e-04 2.3671442695757007e-05 1.3188256100378996e-05  1.0407546747401515e-04 -4.9408694693938129e-05 -5.2205603767258351e-06  1.5504930666930861e-04 -3.1966561035554398e-05 -9.3165676226236123e-06  1.5153969571334121e-05 4.4161900159067795e-05 5.0906254004199628e-05  7.2396082580708320e-05 8.0261067189944871e-06 6.0104352274768661e-05  1.3734910432762354e-04 1.4728132899151587e-05 4.8234232705742187e-05  -6.3489102778059258e-05 -5.6131361427008549e-05 3.0596005045416120e-06  -1.4673373874479934e-05 6.2090123521338784e-05 -7.6161677335472737e-06  -1.6261951477750000e-04 3.1170977422206460e-05 -3.2852388325441705e-05  -2.5328955158270304e-04 -1.0933771188893063e-05 -8.7243855342188988e-06  -1.2266295632699069e-04 1.1447280443693915e-05 -5.0671385187208366e-05  2.3372830078707607e-04 2.3780537637408927e-05 1.1983510014790601e-06  4.9064596343489966e-05 3.6909470879486419e-05 -4.3502342793565510e-05  -1.3578632467222207e-04 -2.5348474356531799e-05 3.9855515200992881e-05  2.5166755240668562e-04 -4.2583688279876125e-07 -2.8834150717460314e-05  -5.8457995349873242e-05 3.2735163740351922e-05 3.2599191548247354e-05  -7.0497947343876305e-05 -2.7264404193783500e-05 -5.1561232783976539e-05  -3.9266360832717174e-05 -5.1442295318975972e-05 -1.3070609987234770e-05  1.6238706978649362e-04 -3.4189367773960063e-05 2.8336929599003996e-05  -2.5028224534142475e-04 2.6142847205524862e-05 9.6210681554400420e-06  -1.4579854648187563e-06 -2.2070748222708086e-05 -6.1579323242609926e-05  -2.1469591371045454e-04 1.8637441332072309e-05 -2.6131235382036986e-05  2.7069834106898234e-04 -1.8306408752351587e-05 1.9538592031905765e-06  1.3765249158866037e-04 4.5673493388385013e-05 1.2021397984175862e-06  9.3017196285780687e-05 5.4618957701758010e-05 1.0879215787530096e-05  -2.4418382656956776e-04 -1.9021574458228653e-05 -4.5063172311839272e-07  5.8180458174519275e-05 -2.1113150871502130e-05 -5.2788404346933875e-05  -6.1567296654942421e-05 -2.5650717266082622e-05 4.9131974307059064e-05  1.2412887045302822e-04 3.1950713313493808e-06 5.5755013039176934e-05  1.1507758345843332e-04 -4.8566107776809167e-05 -1.6319694765608052e-05  -2.5101758526911320e-04 2.1598190092214107e-05 -1.4396117287561254e-05  2.0755657079508083e-05 5.9702628814484137e-05 4.5305656972461442e-06  1.7404607108072393e-04 -9.6094182281934669e-06 3.8471883738409964e-05  1.2662935966294890e-04 -9.1839048889743050e-06 5.1433613383459388e-05  8.4384928719668658e-05 -5.0781261426820486e-05 -3.2067255682088318e-05  1.9754713711538828e-04 3.8362358400522323e-05 3.5169325073786746e-06  -9.5410807670881506e-05 8.5841492424870109e-07 -5.7875810886046783e-05  -4.4907428804468355e-05 -1.2291517053391557e-05 -5.6531175892782318e-05  -4.5680756513330776e-05 8.5245933185542202e-07 -6.2008240334840035e-05  -7.8240722306192691e-05 9.8900847321453336e-06 -5.7958223351579802e-05  -5.4160703712253139e-05 -1.6878419903424477e-05 -6.0318871380892200e-05  -1.9967329235527367e-05 -7.8970218299917166e-06 -5.6741616535103601e-05  2.4502969256268586e-05 2.4462770294221131e-06 -6.4330760845906192e-05  -8.7033913831013491e-07 8.0865542201968066e-06 -6.4728433789432944e-05  3.0636821122168059e-05 -1.1056058325812278e-05 -6.1788610756978397e-05  -3.8127864857151270e-05 -1.2118803305853495e-05 6.6202438784164209e-05  -7.7734706150775195e-05 -1.0488636088009254e-05 5.9200603954924249e-05  -6.6031742644628063e-05 1.3169962045021541e-05 5.4393719776942847e-05  -1.8596582076663958e-05 8.3261858692255330e-06 5.6861552023299457e-05  1.6891393168798379e-05 -1.0672968086529545e-05 6.1644342577136561e-05  -4.6076320765677234e-07 -2.1219480451547444e-05 5.9657146259068795e-05  2.5455272989304772e-05 5.7367806049090199e-06 6.1123039734314991e-05  5.2999900135555210e-05 -3.3062863506520073e-06 6.2211017232914170e-05  4.4086737087556868e-05 1.9976172153738530e-05 5.9025086300497569e-05  -1.2866350471055322e-04 5.6427018622089981e-06 5.4706485487760339e-05  -9.2114036421377503e-05 1.2930216386096876e-05 5.4393051686033301e-05  -1.0162136388000277e-04 -1.0440852195702272e-05 5.2929335427286283e-05  -1.4752364370588557e-04 -9.2395359683277173e-06 4.7209557394206320e-05  -6.8709689774313089e-05 1.6579773207362159e-05 5.4830699144584222e-05  -8.4005460692264088e-05 -1.9694135879093772e-05 5.4507076280321447e-05  -2.0991625750304324e-04 3.8912320420017636e-06 3.2598159218629507e-05  -1.7529630789474602e-04 1.2776465696909366e-05 4.3628206437136113e-05  -1.8063619931317542e-04 -6.9707323097776400e-06 4.3013212851995255e-05  -2.1739727953187668e-04 -6.8581324180116256e-06 3.3983413474649840e-05  -1.5456568279626604e-04 2.3225113042541343e-05 4.9567858089977764e-05  -1.5553028850209935e-04 -1.2445100391901954e-05 4.5557655528023761e-05  -2.4449777325800818e-04 -1.1150934903572481e-05 3.1492596675000894e-05  -2.8824192010877726e-04 -4.0859227954312481e-06 2.7685187497524397e-05  -2.7215318345692800e-04 7.5173777126807873e-06 2.0225144460571621e-05  -2.3572909976239583e-04 6.3345580899833767e-06 2.6887493552233613e-05  -2.2625315870282239e-04 -1.6854759036042690e-05 3.1058655777968515e-05  -2.2612694224826305e-04 1.5028448733681641e-05 3.1319331173464882e-05  -3.0682457737983413e-04 1.1593461271895076e-05 3.0722333142591475e-06  -2.9251458172416456e-04 1.2535251890372189e-05 1.4498984655372755e-05  -2.9602526559654188e-04 -6.2927149726865842e-06 1.8820961758172152e-05  -2.9194292619139995e-04 -1.1938083028407668e-05 9.0248749189073888e-06  -2.8359668860581056e-04 1.6468499320023295e-05 1.4840462046961455e-05  -2.6519340895115630e-04 -1.6622869630084812e-05 1.9175936887214275e-05  -2.7952229181636348e-04 -9.2868614761464936e-08 -1.1819339390169139e-05  -2.8708391007840406e-04 8.9903523710861420e-06 -3.4039715392669659e-06  -3.0225200841794292e-04 -4.8450650443684630e-06 -3.5047152633244499e-07  -2.8708396434991339e-04 -1.5450930921516871e-05 -1.1289461957982707e-05  -3.0340982468375611e-04 1.6048698421660637e-05 3.1735079272390573e-07  -2.9612102657349741e-04 -1.5184772337500875e-05 -8.1547881394274796e-07  -2.7760535862401291e-04 -9.7886194116032382e-06 -2.0560885205140271e-05  -2.5270735162352816e-04 -3.2484098587569032e-06 -3.0446729193492903e-05  -2.6270223828130660e-04 6.0416514695928953e-06 -3.1817739689832081e-05  -2.7694500504357289e-04 3.7770382454047108e-06 -2.5459973457364205e-05  -2.8118181279866402e-04 -2.2129098638782713e-05 -1.8829459494639463e-05  -2.7999118351752176e-04 9.4556702102298027e-06 -1.8990418010018333e-05  -1.8246514754529606e-04 6.3452971512152662e-06 -4.4899702727143103e-05  -2.1137346515286162e-04 2.3378575840844686e-06 -3.9437635335601331e-05  -2.2144736662171207e-04 -7.0626137872780776e-06 -3.5158005812982146e-05  -1.8339684886104017e-04 -7.6669812434585475e-06 -4.0840511684410387e-05  -2.1983680120930702e-04 9.1691382128665919e-06 -2.9839517558565504e-05  -2.3048155393455794e-04 -1.1469397592331095e-05 -3.2277154794742050e-05  -1.5253764624864540e-04 -4.6981263611722325e-06 -4.7888831382988657e-05  -1.1055068271543146e-04 8.4804160477406418e-06 -5.3581855671524827e-05  -1.5205396185650520e-04 9.8865010367441558e-06 -4.9601366778603727e-05  -1.7348194255404625e-04 -2.0864518404434128e-05 -4.5533087480874967e-05  -1.5791521603101348e-04 1.1546037405224606e-05 -4.6576755582412544e-05  -9.1150289205508872e-05 1.5148973457029503e-05 -4.8947258386533121e-05  -1.5900801768005689e-04 2.6216067289795793e-05 3.9663648239633768e-05  -1.2063884407704327e-04 2.5800535719536624e-05 4.8475876129842645e-05  -9.8951757401071367e-05 3.6130343954119717e-05 4.7424000236915975e-05  -7.6634937423486816e-05 2.2643215690761719e-05 4.5237155209087411e-05  -5.1451071418601806e-05 1.9786775340003518e-05 5.1304776482629078e-05  -1.8333020481389178e-04 -2.8434914071482929e-05 -4.1341872664458134e-05  -1.2467859581500665e-04 -2.7022414756042007e-05 -4.7665627819474439e-05  -1.0569530604936231e-04 -2.9275383844223052e-05 -4.6726324126889058e-05  -8.3642663811145181e-05 -2.7280178597591919e-05 -5.5591984252157116e-05  -4.4745733360793980e-05 -2.1305398828226355e-05 -5.4444380950878355e-05  -2.7274588942624925e-04 1.7426749529980114e-05 -3.6447649644521134e-06  -2.8652228464180350e-04 1.7143105770221525e-05 2.0992749942739382e-06  -2.4970362812231804e-04 2.5013178012501216e-05 6.4150983392700703e-06  -2.7340479091819713e-04 2.0747971685918152e-05 1.0649544082738350e-05  -2.4090777099629253e-04 1.5832850101050484e-05 2.0854133138283046e-05  -1.6226062461940718e-04 3.3576393337132381e-05 -3.9321923547407222e-05  -1.9256751252435674e-04 2.7971329040541335e-05 -3.6295211571132329e-05  -1.5322038277944993e-04 2.2412835011696433e-05 -4.2808907951261302e-05  -1.2254327353863862e-04 1.9394658300945244e-05 -5.0315412098824773e-05  -2.1602137068557238e-04 2.3483882078674959e-05 -3.2334365142932484e-05  -2.4658306837344095e-04 1.6125697447625876e-05 -2.7344035641663948e-05  -1.9843357035371860e-04 2.3245339023886152e-05 -3.0083546904055442e-05  -2.2564899332197438e-04 -1.7875748409184331e-05 -2.8386022577062570e-05  -1.7330803583969927e-04 -2.0194337601151973e-05 -3.0512897044588389e-05  -2.6719050106301638e-04 -2.9642638348759799e-05 -2.3885574275316563e-05  -2.3311888797736675e-04 -2.6192749709581053e-05 -2.2409666760683163e-05  -2.7317773278592926e-04 -2.1833629724931796e-05 -1.3877104247832181e-05  -1.9224294052161105e-04 -2.5248444907251902e-05 3.5852318578732711e-05  -2.2639930246352676e-04 -2.2784852381911562e-05 3.0489657671267925e-05  -2.2325949248636604e-04 -2.0980014463249408e-05 2.1487779083965421e-05  -2.4913931097597631e-04 -1.8481215840596455e-05 2.1741544039604966e-05  -2.7627027712661436e-04 -9.6844186707038295e-06 1.3380041145262770e-05  -4.4823748182519609e-05 -2.9740900589378845e-05 5.5719725152761643e-05  -1.0434641315068469e-04 -2.2865602905013822e-05 5.3066255509178956e-05  -1.2780991880844141e-04 -2.0791240734620987e-05 4.8235281269010796e-05  -1.6026085426259641e-04 -2.4630615488172137e-05 4.2451812289847395e-05  -1.0861573264506766e-04 -2.8094143875457249e-05 4.9249976020164675e-05  -6.9880666147298755e-05 3.4454133503088371e-05 -5.0065732016466468e-05  -8.0379235554654650e-05 1.8877374272714541e-05 -4.7618813259999590e-05  -4.4753415706722080e-05 2.4844407825879155e-05 -5.3420157531997592e-05  3.2207079036817018e-06 2.0169648964217755e-05 -5.9002069690849854e-05  -8.1862888574835961e-06 2.648