<?xml version="1.0"?>
<VTKFile type="UnstructuredGrid"  version="0.1"  >
<UnstructuredGrid>
<Piece  NumberOfPoints="1216" NumberOfCells="5256">
<Points>
<DataArray  type="Float64"  NumberOfComponents="3"  format="ascii">-0.03373685470656405 -0.003620050243259417 5364.628171666825  -0.06267743987392269 0.1619626284047161 -5364.778628286449  155.0964497989105 0.1299645197269787 -5297.583709797465  305.9649414163691 0.1612564997769595 -5097.868702123053  448.4968854700054 0.1502583302397733 -4771.123000253314  579.0877375595603 0.1906550338249162 -4326.578584730436  694.4632421957577 0.1000582247861753 -3776.254148473728  792.0459708300995 0.02789974679181823 -3134.561171655787  869.779604113732 -0.007889770701932442 -2417.911172014254  926.2811409482471 -0.03105430884169964 -1644.137385928652  960.5122438888578 -0.03075591266728461 -831.7798374342176  972.0435716900313 -0.01778606853168995 -0.0354383281025253  960.5201787251992 -0.03593460508790087 831.7605572419411  926.3033362522308 -0.02667646203526678 1644.135473054033  869.7904062223389 -0.004104862393581623 2417.857933458849  792.0795610574996 0.1065948580083955 3134.445842769434  694.556394254718 0.1215345752029472 3776.224644775187  579.2140205293086 0.1141887506773614 4326.632912338098  448.6704825456457 0.1523181642037318 4771.190407110832  306.0700212215692 0.1121650066783703 5097.876336455406  155.16117590468 0.04493079353663624 5297.557348945115  387.7422803362461 -771.8520352883683 -4656.073045636208  385.0994547030623 599.0614843459668 4772.426936520493  928.1677856893941 -710.2151271304687 -788.4984585899249  674.516502200213 -760.0737650504464 3560.610485991273  847.0378050647138 713.2940553476004 2239.663144147206  843.5797315713714 713.0250993340308 -2278.916765049301  432.5578580864433 691.8417723348838 -4593.607111378167  149.6193436534874 -686.5798102219388 5099.711251362125  670.0151731496702 -700.0100237409546 -3636.362331026438  470.2163600162897 -1369.109281194241 -3763.143036919009  694.8055898489059 -1357.635519314646 -2585.493195655072  481.1460262176813 -1937.503874270849 -2486.690427521117  674.1835655212046 -1832.680469467265 -1222.375043796918  427.4479139088093 -2320.46824369768 -1039.855378072878  604.9485186256211 -2088.465635626793 262.7039156674005  320.8313915694912 -2480.069684525624 474.7136892455121  462.6686171887117 -2148.531560756209 1800.517268288445  167.7392632397313 -2402.4856990023 1916.68015787969  296.2343903606412 -1945.100176663989 3168.304104277957  -11.52244235318979 -2087.78021975567 3175.876730060847  702.4160195654811 -1694.128761368051 1516.875633081543  670.0607986205342 700.0904208348751 3636.42065661283  681.0441605806604 1365.506929264499 2674.583016818436  820.770035608996 1320.51965425444 1208.160968138586  110.6234017786446 -1536.366187722226 4252.147814137496  403.2316275514984 -1352.321312187721 4005.027411200872  469.9968308287268 1289.72535797093 3879.990528333603  455.123711626213 1904.41651949478 2715.160053006725  929.8383127333673 -692.8894927958064 788.3296263620589  826.4361953639393 -1430.183603972537 91.34812781262818  848.8249679347271 -714.0217544087136 -2217.680120644273  149.522196570893 686.8588600960242 -5099.72923418969  663.4441889261919 682.1050968131724 -3686.543003656391  675.8929154886731 1357.566937880771 -2728.505063332067  208.0269798730046 -2328.306345410807 -2158.821083705624  -145.7593864492744 -2432.017211371075 1814.492713103474  201.2746815473988 -1393.692171194499 -4365.763417262975  815.3812088120693 1335.933561302757 -1248.670959150093  616.4085206999888 1922.977398023477 -1505.594458604168  439.0352196920509 1853.897386734172 -2921.814487266287  348.8081184489943 2324.374804174018 -1625.601163545228  154.0767439417588 2166.103699778821 -2845.550818634251  45.31860888862569 2515.214925320652 -1476.02570010565  -158.1044767048905 2232.108882990456 -2626.267460853295  -261.3642204775205 2474.509609554712 -1112.649413113703  -457.4737123924024 2108.546383952542 -2010.323897747136  -50.40555239964169 2623.245318079984 98.50265972728596  -319.2951811024111 -2012.508876970297 2926.317712416193  -441.3088559354886 -2245.455184730638 1446.812589027049  -536.8410189129502 2202.990599365866 -542.7666318051463  -702.914537265639 1723.130783436304 -1376.016298735671  -747.6517460431646 1724.370840449657 123.0598765741744  -869.5958381150654 1138.871792858236 -858.7179236672142  -880.8130300612669 1081.417686234355 801.0903333487144  -774.9927478549998 1070.861817958976 -2449.057638678328  -718.8345037402692 1589.199390958333 1727.183125166962  -915.7414784030145 471.5814445620171 -1558.954144601014  -814.9429685438595 882.6237487963725 2356.90456383293  -783.247140085143 299.3714192547983 -3144.329368039537  -876.5254113352315 -341.1546351945257 -2240.780215345273  -611.5114335174512 1318.844569119694 3206.740784448047  -137.3488645506511 -1057.858961567368 4821.86782883758  -597.724257016167 -1731.225123346451 2382.79480310788  -705.7982151774106 -456.3586286165473 -3593.029658102686  -762.978251245493 -1080.659611972585 -2542.186641399932  -935.6509929121943 299.7242088645403 1344.964176837263  -333.3193057229002 1726.362756758498 -3562.790504526772  -672.8942822095582 561.1788967883604 3720.071010752238  214.7071423490067 1740.057754502398 3783.707547216454  -904.3146796029167 -893.8253019981764 -901.7975113204609  -573.7256079140425 180.7876086390631 -4332.574295752391  -449.1286086847061 992.2871303624537 4299.95136636419  -553.3232568031067 -1148.663600773838 -3742.541265387318  -581.2924144810248 -1727.418299580542 -2506.43383019991  -491.7951466551309 1944.752313036467 2405.120414865836  -253.6145147847726 -2537.661588287586 343.7748496780944  -471.7659603641624 166.5440877908625 4690.711845743933  -693.223529215412 -242.999477934009 3750.247386774006  -337.066339959179 -1714.987771712791 -3575.440240861713  -339.7313312143182 -2207.955575853535 -2212.197668571888  -289.3889321056234 -1074.475885409613 -4605.369619305979  506.7434339771894 2267.957490048441 -150.5716305827036  -675.8788516300951 -1869.863867991643 945.1741022146908  -806.6488407033365 -1262.354736332458 1652.351410462505  179.7617492127515 2262.57470624965 2480.567662051265  -64.72867311174709 2028.127509527955 3314.290790808577  -22.31554926545884 1513.867419886593 4325.410287454535  -268.6338130772664 635.5016620270005 4983.774257329242  -448.437657357728 -1398.716081106814 3793.950289931255  235.2658148059408 1700.664320465543 -3824.126536497261  -558.4924614665532 -2100.997274344462 -1164.698363101361  -73.80527064175098 1293.597955801486 -4607.294430492644  -162.9466552242664 551.2834739854086 -5160.585225026303  -111.9530624865664 2444.07595184279 1814.22804647734  -209.5125239433381 -390.256113794459 5176.039823316642  -72.50601176259256 -2128.158803296715 -3042.57674837248  -451.4878300794078 -631.8306100056095 4576.628693522535  -693.0855467422919 -1033.947809276389 3145.182179374778  -856.2805823663182 -500.9500491166886 2357.833503416263  -934.3294915668833 -655.4972708254202 746.2816705243447  -967.9807534295699 -85.36410417421185 -461.8264697856467  -381.1255003050184 1103.160344480875 -4376.006330341163  -576.1702040457353 1232.211627417736 -3524.57923694283  -85.60482767293657 -2463.309142918942 -1748.788102430501  -34.06622760218949 1910.065278714276 -3603.102328097707  399.4773952249284 2306.944428830796 1394.356227099508  843.3250115339827 -682.024347553412 2320.508837576984  49.57105655498847 -720.0259801278576 -5136.557464903379  159.1914826199247 -2560.819403316888 -822.8332982798813  -303.5360827482235 1649.989987218046 3781.514588299206  931.9099333329765 665.7776462262204 -805.2858859163141  634.2842749304295 1906.820532937974 1371.871051903956  744.675705403174 1734.707168940323 -60.89337376840071  -753.0943557504814 -1565.764113781918 -1347.323656572681  -332.855179522828 2471.878307149193 415.6238513783879  -554.1575170385635 2133.394200746715 975.8974130461207  -54.14362711645212 -1570.955363973795 -4229.235978474167  -231.1320366763144 -283.6408520725865 -5179.875271799215  -485.4101665642988 -459.2967084798287 -4562.493355698231  232.5557315595204 2553.294239571841 -272.8804419979043  27.32702437645763 -2608.742329576995 593.7094487538441  548.125674484543 -1646.582328312189 2905.865471092597  933.5013310728295 674.4927657205182 714.6933303920401  432.8796697478202 -686.4959890718503 4596.132430143643  -831.0132638891317 -1409.03674785089 131.4378745943268  -178.6723007678834 -1701.086856577241 3907.8934952605  482.881437630761 1250.273502856975 -3887.758642822467  -837.5038884512159 208.8755670246229 2714.752233051721  224.4649155347307 -1929.587208311137 -3363.724518609238  243.6475132757158 1231.038209692749 4512.115314643523  143.4994705695902 2537.375356617383 1122.871198411434  -616.3602101825883 1639.287980354154 -2505.134507084485  821.2449916973948 -1270.979910630345 -1391.848995779573  -15.18052314325051 661.5696214976396 5178.086821705474  745.6475153316195 -1229.430869601076 2421.215489367406  -945.8076979679169 631.3472783061322 -120.9487369244701  -516.3823833250207 -2253.946104930553 51.46008590486445  -317.1132268846571 -2454.226269505659 -885.0689714762044  878.5768931892571 1168.712544591544 -37.03635666863082  -222.0397689232131 1262.930938407433 4506.133625146204  275.9788958128741 1146.432890384009 -4554.037907990923  -333.9302006553889 187.5416020821988 -5030.067450709898  -366.3535867467581 2292.783333815431 1696.944524788295  834.4246384407038 -1182.031801043712 1464.385115604007  -68.67196627316793 -2606.908035079384 -536.4949734059976  -631.8172536634446 672.7428443028139 -3857.384604314336  -433.6586858289923 565.9499568611666 -4665.192838539519  -279.8961792103545 2094.236110742602 2802.621364521051  -696.6161145681073 -1870.019307956592 -298.171319604263  348.3411356110432 301.292971344633 4975.862011084147  198.3513208941237 306.2166380430838 5214.390673631478  75.7046887197168 -346.6979147434568 5298.04129170927  230.7620902480249 -347.3
[...]
<PointData  Vectors="Centrifugal"> 
<DataArray  type="Float64"  Name="Centrifugal"  NumberOfComponents="3" format="ascii">-7.9401010359325993e-10 -9.3872281237615631e-11 0.0000000000000000e+00  -1.4669698441208455e-09 3.7944903099412525e-09 0.0000000000000000e+00  3.7508948426250973e-06 3.0445336119245608e-09 0.0000000000000000e+00  7.3998597967724707e-06 3.7759073195514267e-09 0.0000000000000000e+00  1.0847832416630767e-05 3.5175062792750955e-09 0.0000000000000000e+00  1.4007698966823483e-05 4.4614586266728185e-09 0.0000000000000000e+00  1.6800282322275274e-05 2.3428515600268631e-09 0.0000000000000000e+00  1.9162987753132478e-05 6.5584537637754672e-10 0.0000000000000000e+00  2.1045744124117270e-05 -1.8234314365001047e-10 0.0000000000000000e+00  2.2414613205137606e-05 -7.2603765716006564e-10 0.0000000000000000e+00  2.3244131597338464e-05 -7.1857517601620433e-10 0.0000000000000000e+00  2.3523549316101857e-05 -4.1562687493474913e-10 0.0000000000000000e+00  2.3244315624221359e-05 -8.4088406862889088e-10 0.0000000000000000e+00  2.2415131815601784e-05 -6.2686466898041083e-10 0.0000000000000000e+00  2.1045995925115058e-05 -9.9422891630888003e-11 0.0000000000000000e+00  1.9163770783430750e-05 2.4892876411601481e-09 0.0000000000000000e+00  1.6802458564196695e-05 2.8361067308850437e-09 0.0000000000000000e+00  1.4010651665508575e-05 2.6636270232109739e-09 0.0000000000000000e+00  1.0851894850411832e-05 3.5575335845877898e-09 0.0000000000000000e+00  7.4023165692838828e-06 2.6177404661646931e-09 0.0000000000000000e+00  3.7524069543979393e-06 1.0439313117957549e-09 0.0000000000000000e+00  9.3776057169031419e-06 -1.8647099482910065e-05 0.0000000000000000e+00  9.3137675977824862e-06 1.4473046089794245e-05 0.0000000000000000e+00  2.2459366352718666e-05 -1.7139606138315118e-05 0.0000000000000000e+00  1.6316603557053946e-05 -1.8354480729514235e-05 0.0000000000000000e+00  2.0493939591133266e-05 1.7217873364314606e-05 0.0000000000000000e+00  2.0410223463593315e-05 1.7211589251752411e-05 0.0000000000000000e+00  1.0461787853251074e-05 1.6713390118686075e-05 0.0000000000000000e+00  3.6182245312603289e-06 -1.6590332439419084e-05 0.0000000000000000e+00  1.6207819751616420e-05 -1.6904310486118399e-05 0.0000000000000000e+00  1.1371647551497626e-05 -3.3065669274125543e-05 0.0000000000000000e+00  1.6806063699070170e-05 -3.2776255043385987e-05 0.0000000000000000e+00  1.1634331448396550e-05 -4.6778301069947786e-05 0.0000000000000000e+00  1.6304936788204231e-05 -4.4236208905038933e-05 0.0000000000000000e+00  1.0334252587385525e-05 -5.6013956299805146e-05 0.0000000000000000e+00  1.4628452914081849e-05 -5.0408825733096647e-05 0.0000000000000000e+00  7.7557416175059851e-06 -5.9865995760703463e-05 0.0000000000000000e+00  1.1186595519435312e-05 -5.1867582912797644e-05 0.0000000000000000e+00  4.0548455052424800e-06 -5.8002360173218430e-05 0.0000000000000000e+00  7.1623927999567865e-06 -4.6970925437480397e-05 0.0000000000000000e+00  -2.7858392230425480e-07 -5.0417679500285569e-05 0.0000000000000000e+00  1.6988819137920526e-05 -4.0892739647234215e-05 0.0000000000000000e+00  1.6208884136846659e-05 1.6906186165807962e-05 0.0000000000000000e+00  1.6472920664983731e-05 3.2967137449513669e-05 0.0000000000000000e+00  1.9855708719404048e-05 3.1871519136260984e-05 0.0000000000000000e+00  2.6748118682598986e-06 -3.7112973819338054e-05 0.0000000000000000e+00  9.7513491973828510e-06 -3.2663179553122671e-05 0.0000000000000000e+00  1.1366462613258271e-05 3.1149445032990924e-05 0.0000000000000000e+00  1.1005022039712014e-05 4.5981884767197135e-05 0.0000000000000000e+00  2.2499875293886148e-05 -1.6721500127192889e-05 0.0000000000000000e+00  1.9992451479745995e-05 -3.4516200838409325e-05 0.0000000000000000e+00  2.0537256122485854e-05 -1.7235369646370882e-05 0.0000000000000000e+00  3.6159542015774850e-06 1.6596860319339062e-05 0.0000000000000000e+00  1.6048785923422810e-05 1.6472207839953792e-05 0.0000000000000000e+00  1.6348280132646074e-05 3.2775912024699567e-05 0.0000000000000000e+00  5.0289575464599927e-06 -5.6213357248112147e-05 0.0000000000000000e+00  -3.5234926612024279e-06 -5.8714574827565695e-05 0.0000000000000000e+00  4.8670775733126206e-06 -3.3667532722271889e-05 0.0000000000000000e+00  1.9725173616166509e-05 3.2243807890755484e-05 0.0000000000000000e+00  1.4906476242718009e-05 4.6418374835386981e-05 0.0000000000000000e+00  1.0616076558867149e-05 4.4764476237944175e-05 0.0000000000000000e+00  8.4326239216729577e-06 5.6112820262840745e-05 0.0000000000000000e+00  3.7249210247639307e-06 5.2304630444238941e-05 0.0000000000000000e+00  1.0954423430174706e-06 6.0720922846022583e-05 0.0000000000000000e+00  -3.8221702277422890e-06 5.3895831886550678e-05 0.0000000000000000e+00  -6.3180759092906910e-06 5.9734904871858257e-05 0.0000000000000000e+00  -1.1061155009679185e-05 5.0904035212618892e-05 0.0000000000000000e+00  -1.2183709254212525e-06 6.3323453694508737e-05 0.0000000000000000e+00  -7.7199058119004981e-06 -4.8595693483470354e-05 0.0000000000000000e+00  -1.0669690534310502e-05 -5.4205254471129614e-05 0.0000000000000000e+00  -1.2980348317155791e-05 5.3174953206528442e-05 0.0000000000000000e+00  -1.7000725324227061e-05 4.1592108169952024e-05 0.0000000000000000e+00  -1.8083585276867755e-05 4.1618059306933307e-05 0.0000000000000000e+00  -2.1038968041549049e-05 2.7485788319130801e-05 0.0000000000000000e+00  -2.1310920024645034e-05 2.6098845255881059e-05 0.0000000000000000e+00  -1.8748186405878330e-05 2.5851150787152686e-05 0.0000000000000000e+00  -1.7386708626684884e-05 3.8360659583189863e-05 0.0000000000000000e+00  -2.2158816076010059e-05 1.1381617466160889e-05 0.0000000000000000e+00  -1.9716227736766422e-05 2.1306131885017609e-05 0.0000000000000000e+00  -1.8949715961341656e-05 7.2279695914267932e-06 0.0000000000000000e+00  -2.1208898915713642e-05 -8.2348229741684757e-06 0.0000000000000000e+00  -1.4790370446578199e-05 3.1845476132391324e-05 0.0000000000000000e+00  -3.3213849094853307e-06 -2.5559088296632891e-05 0.0000000000000000e+00  -1.4455273277966914e-05 -4.1795608164345194e-05 0.0000000000000000e+00  -1.7074355949447790e-05 -1.1020150868320793e-05 0.0000000000000000e+00  -1.8457296166196090e-05 -2.6088354716965959e-05 0.0000000000000000e+00  -2.2641479517794228e-05 7.2334911677013849e-06 0.0000000000000000e+00  -8.0596682967625154e-06 4.1692655349862092e-05 0.0000000000000000e+00  -1.6277712949835216e-05 1.3551989453181682e-05 0.0000000000000000e+00  5.1914127811547119e-06 4.2026752551947388e-05 0.0000000000000000e+00  -2.1880914756378776e-05 -2.1571149112701164e-05 0.0000000000000000e+00  -1.3877797307939522e-05 4.3668194559148195e-06 0.0000000000000000e+00  -1.0862271369518889e-05 2.3968898504619622e-05 0.0000000000000000e+00  -1.3382743040503116e-05 -2.7740841788968150e-05 0.0000000000000000e+00  -1.4057707414104527e-05 -4.1704860442325774e-05 0.0000000000000000e+00  -1.1891871090886098e-05 4.6952392166105396e-05 0.0000000000000000e+00  -6.1305688038035715e-06 -6.1256610706096070e-05 0.0000000000000000e+00  -1.1410695007662160e-05 4.0233095100618945e-06 0.0000000000000000e+00  -1.6770187500208309e-05 -5.8684199254657603e-06 0.0000000000000000e+00  -8.1502793526710629e-06 -4.1418176123081094e-05 0.0000000000000000e+00  -8.2135009904200993e-06 -5.3307090002320446e-05 0.0000000000000000e+00  -6.9982429037659241e-06 -2.5958137828153873e-05 0.0000000000000000e+00  1.2252054255324468e-05 5.4743026970211567e-05 0.0000000000000000e+00  -1.6345772304968451e-05 -4.5132589872964467e-05 0.0000000000000000e+00  -1.9514031208889920e-05 -3.0469393593503915e-05 0.0000000000000000e+00  4.3457055203666080e-06 5.4629751291501065e-05 0.0000000000000000e+00  -1.5649336636829987e-06 4.8978560778843857e-05 0.0000000000000000e+00  -5.3960407578935355e-07 3.6570290438059051e-05 0.0000000000000000e+00  -6.4966821224505251e-06 1.5354852172831889e-05 0.0000000000000000e+00  -1.0844777170026848e-05 -3.3781221640096020e-05 0.0000000000000000e+00  5.6886133861914973e-06 4.1075681383063439e-05 0.0000000000000000e+00  -1.3504571497740948e-05 -5.0714602195461393e-05 0.0000000000000000e+00  -1.7846341523458701e-06 3.1252367119445011e-05 0.0000000000000000e+00  -3.9405487928103079e-06 1.3321181488668751e-05 0.0000000000000000e+00  -2.7062411348148825e-06 5.9005788587846697e-05 0.0000000000000000e+00  -5.0668800110262531e-06 -9.4300833069291527e-06 0.0000000000000000e+00  -1.7528448202403663e-06 -5.1390936301182325e-05 0.0000000000000000e+00  -1.0919799502074409e-05 -1.5263805247044811e-05 0.0000000000000000e+00  -1.6765481515661714e-05 -2.4965046029511121e-05 0.0000000000000000e+00  -2.0718315695601328e-05 -1.2092442867062345e-05 0.0000000000000000e+00  -2.2608840554876253e-05 -1.5818975514736027e-05 0.0000000000000000e+00  -2.3425130067864120e-05 -2.0599857724914742e-06 0.0000000000000000e+00  -9.2170146282049008e-06 2.6648369011714641e-05 0.0000000000000000e+00  -1.3935377330474208e-05 2.9756447059533169e-05 0.0000000000000000e+00  -2.0692886977367787e-06 -5.9469625512228347e-05 0.0000000000000000e+00  -8.2360732667150754e-07 4.6131101146016892e-05 0.0000000000000000e+00  9.6578679113868286e-06 5.5689888680505027e-05 0.0000000000000000e+00  2.0404036159890925e-05 -1.6463360802836570e-05 0.0000000000000000e+00  1.1988173073921524e-06 -1.7398899834387800e-05 0.0000000000000000e+00  3.8480047407636596e-06 -6.1817586987658642e-05 0.0000000000000000e+00  -7.3395778097578745e-06 3.9850820012995121e-05 0.0000000000000000e+00  2.2550100352670624e-05 1.6067274887753497e-05 0.0000000000000000e+00  1.5339070651724122e-05 4.6027332040883719e-05 0.0000000000000000e+00  1.8011485466885097e-05 4.1867616958943051e-05 0.0000000000000000e+00  -1.8216098529352391e-05 -3.7792494096754383e-05 0.0000000000000000e+00  -8.0464561723211532e-06 5.9668131714937587e-05 0.0000000000000000e+00  -1.3399523336366869e-05 5.1496044662962168e-05 0.0000000000000000e+00  -1.3091416927623349e-06 -3.7948310446468313e-05 0.0000000000000000e+00  -5.5896841799495599e-06 -6.8540403945441489e-06 0.0000000000000000e+00  -1.1740591592387380e-05 -1.1095507868082405e-05 0.0000000000000000e+00  5.6214558457825586e-06 6.1634142124992195e-05 0.0000000000000000e+00  6.6050655500916577e-07 -6.2974133629388300e-05 0.0000000000000000e+00  1.3255564668388480e-05 -3.9757205855775676e-05 0.0000000000000000e+00  2.2588654677545212e-05 1.6277442912433827e-05 0.0000000000000000e+00  1.0469507290787196e-05 -1.6584529614364350e-05 0.0000000000000000e+00  -2.0103411953784599e-05 -3.4005657751057549e-05 0.0000000000000000e+00  -4.3201506438041125e-06 -4.1087362328720895e-05 0.0000000000000000e+00  1.1678325488627401e-05 3.0196674562309050e-05 0.0000000000000000e+00  -2.0263868763403033e-05 5.0424043577978938e-06 0.0000000000000000e+00  5.4270846226155308e-06 -4.6599044481657573e-05 0.0000000000000000e+00  5.8918414998412519e-06 2.9739380490270378e-05 0.0000000000000000e+00  3.4686744913949603e-06 6.1253312199704949e-05 0.0000000000000000e+00  -1.4906480046738748e-05 3.9576730288445936e-05 0.0000000000000000e+00  1.9867464919283252e-05 -3.0676380608438818e-05 0.0000000000000000e+00  -3.6712682603229229e-07 1.5986154280260058e-05 0.0000000000000000e+00  1.8037192304755511e-05 -2.9679459657927245e-05 0.0000000000000000e+00  -2.2886983285148447e-05 1.5235795641633179e-05 0.0000000000000000e+00  -1.2485273913708869e-05 -5.4404513237002061e-05 0.0000000000000000e+00  -7.6659202166865458e-06 -5.9243467087706995e-05 0.0000000000000000e+00  2.1256335726793291e-05 2.8204964245913424e-05 0.0000000000000000e+00  -5.3693195333104910e-06 3.0509886755354935e-05 0.0000000000000000e+00  6.6739048293885596e-06 2.7695884578242478e-05 0.0000000000000000e+00  -8.0761140499573532e-06 4.5312269478811560e-06 0.0000000000000000e+00  -8.8570007388108833e-06 5.5350431245607384e-05 0.0000000000000000e+00  2.0186949811661236e-05 -2.8529558613955508e-05 0.0000000000000000e+00  -1.6598936289270523e-06 -6.2929590839701539e-05 0.0000000000000000e+00  -1.5283219652235764e-05 1.6247154023976067e-05 0.0000000000000000e+00  -1.0488433288636609e-05 1.3672509138667665e-05 0.0000000000000000e+00  -6.7670566823925813e-06 5.0567937497330044e-05 0.0000000000000000e+00  -1.6847579029017147e-05 -4.5134466900999910e-05 0.0000000000000000e+00  8.4247638906461162e-06 7.2796287050915270e-06 0.0000000000000000e+00  4.7969322787635995e-06 7.3994529213206289e-06 0.0000000000000000e+00  1.8307816066608556e-06 -8.3781903481720508e-06 0.0000000000000000e+00  5.5807648083348341e-06 -8.3934062733356412e-06 0.0000000000000000e+00  4.5817126888539744e-06 1.5543389341918752e-05 0.0000000000000000e+00  -1.8520119954493031e-07 8.0494296664335464e-06 0.0000000000000000e+00  -2.5567629735733757e-06 -4.7479243285091287e-06 0.0000000000000000e+00  -7.4096706218955298e-07 -1.3233164867558504e-05 0.0000000000000000e+00  -2.7920051064376372e-06 3.3619873946786915e-06 0.0000000000000000e+00  1.8287571892976745e-06 8.3832397482169499e-06 0.0000000000000000e+00  5.5792131996527981e-06 8.4005202766356310e-06 0.0000000000000000e+00  4.3863796040353486e-06 -8.8566576813386526e-06 0.0000000000000000e+00  6.0445180327266199e-07 -8.7740819430093892e-06 0.0000000000000000e+00  -1.9894112361285166e-06 6.7132342191931804e-06 0.0000000000000000e+00  -1.6496074057318323e-07 1.5137049894025798e-05 0.0000000000000000e+00  -2.8212791762547382e-06 -3.4471007934314911e-06 0.0000000000000000e+00  -4.8320557219532014e-06 3.2781444320030114e-06 0.0000000000000000e+00  -2.2301234718264261e-06 -1.2282006868520172e-05 0.0000000000000000e+00  1.1894828001683151e-05 -9.4971603480027156e-06 0.0000000000000000e+00  8.4975903396689557e-06 -9.4131961231882035e-06 0.0000000000000000e+00  9.0413427293615895e-06 8.4302864027410793e-06 0.0000000000000000e+00  1.2388054058004908e-05 8.4748980918905983e-06 0.0000000000000000e+00  5.3818648611264303e-06 -1.8289475584341623e-05 0.0000000000000000e+00  7.1289522594074690e-06 1.6835299670147875e-05 0.0000000000000000e+00  1.7901079448759112e-05 -8.5797124135298837e-06 0.0000000000000000e+00  1.5288435715940185e-05 -8.5215184183419398e-06 0.0000000000000000e+00  1.5195155618454074e-05 8.3027186112405201e-06 0.0000000000000000e+00  1.7821499272183757e-05 8.3641697930299726e-06 0.0000000000000000e+00  1.3004086042935376e-05 -1.8046506846639121e-05 0.0000000000000000e+00  1.3407062782116446e-05 1.6766998425114877e-05 0.0000000000000000e+00  2.0030504081222276e-05 8.6910141395338214e-06 0.0000000000000000e+00  2.1661068988993132e-05 8.7312860369536646e-06 0.0000000000000000e+00  2.1715572950034802e-05 -8.7391286075731999e-06 0.0000000000000000e+00  2.0106309775394667e-05 -8.7065398508693310e-06 0.0000000000000000e+00  1.8475652265190226e-05 1.7070151868836274e-05 0.0000000000000000e+00  1.8620461240053917e-05 -1.7303905383388880e-05 0.0000000000000000e+00  2.3256527271283037e-05 -8.6851237147590206e-06 0.0000000000000000e+00  2.2699115379676347e-05 -8.6697462602485930e-06 0.0000000000000000e+00  2.2718076517754733e-05 8.1145653116043422e-06 0.0000000000000000e+00  2.3278936404577837e-05 8.1328567677555128e-06 0.0000000000000000e+00  2.1709714706473306e-05 -1.7373431375724120e-05 0.0000000000000000e+00  2.1708961083430070e-05 1.6834443555844877e-05 0.0000000000000000e+00  2.2711631349796661e-05 -8.4544651395973056e-06 0.0000000000000000e+00  2.3266712606428351e-05 -8.4689104533547053e-06 0.0000000000000000e+00  2.3289250130657770e-05 8.2339990927588847e-06 0.0000000000000000e+00  2.2758807807928230e-05 8.2278595370801586e-06 0.0000000000000000e+00  2.2721839541323147e-05 -1.7134753847666398e-05 0.0000000000000000e+00  2.2794904475363176e-05 1.6354804862357480e-05 0.0000000000000000e+00  2.1697705466682727e-05 8.7300829109988074e-06 0.0000000000000000e+00  2.0080955684698381e-05 8.6975154761373099e-06 0.0000000000000000e+00  2.0007381197993469e-05 -8.3026127950335305e-06 0.0000000000000000e+00  2.1646069806762918e-05 -8.3493419990647009e-06 0.0000000000000000e+00  2.1784426693577474e-05 1.6954758045264835e-05 0.0000000000000000e+00  2.1694689317499672e-05 -1.6799105553540520e-05 0.0000000000000000e+00  1.5378369753692729e-05 -9.2729563791598777e-06 0.0000000000000000e+00  1.7976497756058964e-05 -9.3231869181846016e-06 0.0000000000000000e+00  1.7902213845728484e-05 8.5818804078316548e-06 0.0000000000000000e+00  1.5291920375798178e-05 8.5257151953901380e-06 0.0000000000000000e+00  1.8564835640868511e-05 -1.7609777762017584e-05 0.0000000000000000e+00  1.8593350300027619e-05 1.7290429858469815e-05 0.0000000000000000e+00  1.1815743050131744e-05 7.3518013743918779e-06 0.0000000000000000e+00  9.0452115196328151e-06 -8.3614795258518437e-06 0.0000000000000000e+00  1.2390838766396619e-05 -8.4055551232631532e-06 0.0000000000000000e+00  1.2987515765109357e-05 1.5936474616894917e-05 0.0000000000000000e+00  1.3572183538177805e-05 -1.7679953206720950e-05 0.0000000000000000e+00  7.1339754491145663e-06 -1.6764880192186075e-05 0.0000000000000000e+00  1.3992329277063939e-05 -2.5338133465655727e-05 0.0000000000000000e+00  1.0485139350670684e-05 -2.6098867150664056e-05 0.0000000000000000e+00  8.2173279075098789e-06 -3.3719803058489892e-05 0.0000000000000000e+00  7.2168777599520589e-06 -2.6455004455128191e-05 0.0000000000000000e+00  3.0740141487492110e-06 -2.5841063673374240e-05 0.0000000000000000e+00  1.3966502430748498e-05 2.4330843860073123e-05 0.0000000000000000e+00  1.0474212329097542e-05 2.3067603971938839e-05 0.0000000000000000e+00  8.7076887057855804e-06 3.0687593043702551e-05 0.0000000000000000e+00  7.6854843836152324e-06 2.2319909596631178e-05 0.0000000000000000e+00  2.8075504075498241e-06 2.3194900529601333e-05 0.0000000000000000e+00  2.1531009013599394e-05 -2.5984471184603176e-05 0.0000000000000000e+00  2.1526473895291793e-05 -2.6220368871555056e-05 0.0000000000000000e+00  2.0130021059073897e-05 -3.2957516768716960e-05 0.0000000000000000e+00  2.1352780052031156e-05 -2.4141609432779667e-05 0.0000000000000000e+00  2.0372422740643673e-05 -2.4161000235186963e-05 0.0000000000000000e+00  1.1612057766260168e-05 -3.6540112390290941e-05 0.0000000000000000e+00  1.5064979093901193e-05 -2.9578672548829813e-05 0.0000000000000000e+00  1.3281301705407862e-05 -2.5968134473330796e-05 0.0000000000000000e+00  1.0209637421355841e-05 -2.4837293065722893e-05 0.0000000000000000e+00  1.7349317020231321e-05 -2.4247679287932239e-05 0.0000000000000000e+00  1.9352367271768503e-05 -2.3238865121140629e-05 0.0000000000000000e+00  1.5809856580830013e-05 -3.5065244370706752e-05 0.0000000000000000e+00  1.8722775042937362e-05 2.5431861190979014e-05 0.0000000000000000e+00  1.6533744449234878e-05 2.5213746462213175e-05 0.0000000000000000e+00  2.0398529963362867e-05 2.4823232694831126e-05 0.0000000000000000e+00  1.8392339409172330e-05 3.2843289575154163e-05 0.0000000000000000e+00  2.1443071447852014e-05 2.4347183658822470e-05 0.0000000000000000e+00  1.6393475962029420e-05 2.4901181211539681e-05 0.0000000000000000e+00  1.8616876312329097e-05 2.5330749816620631e-05 0.0000000000000000e+00  1.8264680641269732e-05 3.2936681809327927e-05 0.0000000000000000e+00  2.0296896956196989e-05 2.5017454758634793e-05 0.0000000000000000e+00  2.1367101559787317e-05 2.4443422256474120e-05 0.0000000000000000e+00  5.1811603449884813e-06 2.2283730047857772e-05 0.0000000000000000e+00  8.6333977856401478e-06 2.2357058272713646e-05 0.0000000000000000e+00  1.1159584034933231e-05 2.3619755864423900e-05 0.0000000000000000e+00  1.4019415274113522e-05 2.3590636478516308e-05 0.0000000000000000e+00  9.2508330756053730e-06 2.9154568809444142e-05 0.0000000000000000e+00  6.2973071260663918e-06 -3.5289246444799166e-05 0.0000000000000000e+00  6.8325278482911468e-06 -2.5093129876163696e-05 0.0000000000000000e+00  3.2000044160184587e-06 -2.7243556123664917e-05 0.0000000000000000e+00  1.5242075950504269e-07 -2.1337624935852656e-05 0.0000000000000000e+00  -3.3142368866589889e-07 -3.1723859682351335e-05 0.0000000000000000e+00  -4.2350765771989616e-06 -1.7644238510071352e-05 0.0000000000000000e+00  1.6711956457860995e-05 -2.5129433373648080e-05 0.0000000000000000e+00  1.4279759004275815e-05 -3.3347501743917665e-0