<?xml version="1.0"?>
<VTKFile type="UnstructuredGrid"  version="0.1"  >
<UnstructuredGrid>
<Piece  NumberOfPoints="1216" NumberOfCells="5256">
<Points>
<DataArray  type="Float64"  NumberOfComponents="3"  format="ascii">-0.03373685470656405 -0.003620050243259417 5364.628171666825  -0.06267743987392269 0.1619626284047161 -5364.778628286449  155.0964497989105 0.1299645197269787 -5297.583709797465  305.9649414163691 0.1612564997769595 -5097.868702123053  448.4968854700054 0.1502583302397733 -4771.123000253314  579.0877375595603 0.1906550338249162 -4326.578584730436  694.4632421957577 0.1000582247861753 -3776.254148473728  792.0459708300995 0.02789974679181823 -3134.561171655787  869.779604113732 -0.007889770701932442 -2417.911172014254  926.2811409482471 -0.03105430884169964 -1644.137385928652  960.5122438888578 -0.03075591266728461 -831.7798374342176  972.0435716900313 -0.01778606853168995 -0.0354383281025253  960.5201787251992 -0.03593460508790087 831.7605572419411  926.3033362522308 -0.02667646203526678 1644.135473054033  869.7904062223389 -0.004104862393581623 2417.857933458849  792.0795610574996 0.1065948580083955 3134.445842769434  694.556394254718 0.1215345752029472 3776.224644775187  579.2140205293086 0.1141887506773614 4326.632912338098  448.6704825456457 0.1523181642037318 4771.190407110832  306.0700212215692 0.1121650066783703 5097.876336455406  155.16117590468 0.04493079353663624 5297.557348945115  387.7422803362461 -771.8520352883683 -4656.073045636208  385.0994547030623 599.0614843459668 4772.426936520493  928.1677856893941 -710.2151271304687 -788.4984585899249  674.516502200213 -760.0737650504464 3560.610485991273  847.0378050647138 713.2940553476004 2239.663144147206  843.5797315713714 713.0250993340308 -2278.916765049301  432.5578580864433 691.8417723348838 -4593.607111378167  149.6193436534874 -686.5798102219388 5099.711251362125  670.0151731496702 -700.0100237409546 -3636.362331026438  470.2163600162897 -1369.109281194241 -3763.143036919009  694.8055898489059 -1357.635519314646 -2585.493195655072  481.1460262176813 -1937.503874270849 -2486.690427521117  674.1835655212046 -1832.680469467265 -1222.375043796918  427.4479139088093 -2320.46824369768 -1039.855378072878  604.9485186256211 -2088.465635626793 262.7039156674005  320.8313915694912 -2480.069684525624 474.7136892455121  462.6686171887117 -2148.531560756209 1800.517268288445  167.7392632397313 -2402.4856990023 1916.68015787969  296.2343903606412 -1945.100176663989 3168.304104277957  -11.52244235318979 -2087.78021975567 3175.876730060847  702.4160195654811 -1694.128761368051 1516.875633081543  670.0607986205342 700.0904208348751 3636.42065661283  681.0441605806604 1365.506929264499 2674.583016818436  820.770035608996 1320.51965425444 1208.160968138586  110.6234017786446 -1536.366187722226 4252.147814137496  403.2316275514984 -1352.321312187721 4005.027411200872  469.9968308287268 1289.72535797093 3879.990528333603  455.123711626213 1904.41651949478 2715.160053006725  929.8383127333673 -692.8894927958064 788.3296263620589  826.4361953639393 -1430.183603972537 91.34812781262818  848.8249679347271 -714.0217544087136 -2217.680120644273  149.522196570893 686.8588600960242 -5099.72923418969  663.4441889261919 682.1050968131724 -3686.543003656391  675.8929154886731 1357.566937880771 -2728.505063332067  208.0269798730046 -2328.306345410807 -2158.821083705624  -145.7593864492744 -2432.017211371075 1814.492713103474  201.2746815473988 -1393.692171194499 -4365.763417262975  815.3812088120693 1335.933561302757 -1248.670959150093  616.4085206999888 1922.977398023477 -1505.594458604168  439.0352196920509 1853.897386734172 -2921.814487266287  348.8081184489943 2324.374804174018 -1625.601163545228  154.0767439417588 2166.103699778821 -2845.550818634251  45.31860888862569 2515.214925320652 -1476.02570010565  -158.1044767048905 2232.108882990456 -2626.267460853295  -261.3642204775205 2474.509609554712 -1112.649413113703  -457.4737123924024 2108.546383952542 -2010.323897747136  -50.40555239964169 2623.245318079984 98.50265972728596  -319.2951811024111 -2012.508876970297 2926.317712416193  -441.3088559354886 -2245.455184730638 1446.812589027049  -536.8410189129502 2202.990599365866 -542.7666318051463  -702.914537265639 1723.130783436304 -1376.016298735671  -747.6517460431646 1724.370840449657 123.0598765741744  -869.5958381150654 1138.871792858236 -858.7179236672142  -880.8130300612669 1081.417686234355 801.0903333487144  -774.9927478549998 1070.861817958976 -2449.057638678328  -718.8345037402692 1589.199390958333 1727.183125166962  -915.7414784030145 471.5814445620171 -1558.954144601014  -814.9429685438595 882.6237487963725 2356.90456383293  -783.247140085143 299.3714192547983 -3144.329368039537  -876.5254113352315 -341.1546351945257 -2240.780215345273  -611.5114335174512 1318.844569119694 3206.740784448047  -137.3488645506511 -1057.858961567368 4821.86782883758  -597.724257016167 -1731.225123346451 2382.79480310788  -705.7982151774106 -456.3586286165473 -3593.029658102686  -762.978251245493 -1080.659611972585 -2542.186641399932  -935.6509929121943 299.7242088645403 1344.964176837263  -333.3193057229002 1726.362756758498 -3562.790504526772  -672.8942822095582 561.1788967883604 3720.071010752238  214.7071423490067 1740.057754502398 3783.707547216454  -904.3146796029167 -893.8253019981764 -901.7975113204609  -573.7256079140425 180.7876086390631 -4332.574295752391  -449.1286086847061 992.2871303624537 4299.95136636419  -553.3232568031067 -1148.663600773838 -3742.541265387318  -581.2924144810248 -1727.418299580542 -2506.43383019991  -491.7951466551309 1944.752313036467 2405.120414865836  -253.6145147847726 -2537.661588287586 343.7748496780944  -471.7659603641624 166.5440877908625 4690.711845743933  -693.223529215412 -242.999477934009 3750.247386774006  -337.066339959179 -1714.987771712791 -3575.440240861713  -339.7313312143182 -2207.955575853535 -2212.197668571888  -289.3889321056234 -1074.475885409613 -4605.369619305979  506.7434339771894 2267.957490048441 -150.5716305827036  -675.8788516300951 -1869.863867991643 945.1741022146908  -806.6488407033365 -1262.354736332458 1652.351410462505  179.7617492127515 2262.57470624965 2480.567662051265  -64.72867311174709 2028.127509527955 3314.290790808577  -22.31554926545884 1513.867419886593 4325.410287454535  -268.6338130772664 635.5016620270005 4983.774257329242  -448.437657357728 -1398.716081106814 3793.950289931255  235.2658148059408 1700.664320465543 -3824.126536497261  -558.4924614665532 -2100.997274344462 -1164.698363101361  -73.80527064175098 1293.597955801486 -4607.294430492644  -162.9466552242664 551.2834739854086 -5160.585225026303  -111.9530624865664 2444.07595184279 1814.22804647734  -209.5125239433381 -390.256113794459 5176.039823316642  -72.50601176259256 -2128.158803296715 -3042.57674837248  -451.4878300794078 -631.8306100056095 4576.628693522535  -693.0855467422919 -1033.947809276389 3145.182179374778  -856.2805823663182 -500.9500491166886 2357.833503416263  -934.3294915668833 -655.4972708254202 746.2816705243447  -967.9807534295699 -85.36410417421185 -461.8264697856467  -381.1255003050184 1103.160344480875 -4376.006330341163  -576.1702040457353 1232.211627417736 -3524.57923694283  -85.60482767293657 -2463.309142918942 -1748.788102430501  -34.06622760218949 1910.065278714276 -3603.102328097707  399.4773952249284 2306.944428830796 1394.356227099508  843.3250115339827 -682.024347553412 2320.508837576984  49.57105655498847 -720.0259801278576 -5136.557464903379  159.1914826199247 -2560.819403316888 -822.8332982798813  -303.5360827482235 1649.989987218046 3781.514588299206  931.9099333329765 665.7776462262204 -805.2858859163141  634.2842749304295 1906.820532937974 1371.871051903956  744.675705403174 1734.707168940323 -60.89337376840071  -753.0943557504814 -1565.764113781918 -1347.323656572681  -332.855179522828 2471.878307149193 415.6238513783879  -554.1575170385635 2133.394200746715 975.8974130461207  -54.14362711645212 -1570.955363973795 -4229.235978474167  -231.1320366763144 -283.6408520725865 -5179.875271799215  -485.4101665642988 -459.2967084798287 -4562.493355698231  232.5557315595204 2553.294239571841 -272.8804419979043  27.32702437645763 -2608.742329576995 593.7094487538441  548.125674484543 -1646.582328312189 2905.865471092597  933.5013310728295 674.4927657205182 714.6933303920401  432.8796697478202 -686.4959890718503 4596.132430143643  -831.0132638891317 -1409.03674785089 131.4378745943268  -178.6723007678834 -1701.086856577241 3907.8934952605  482.881437630761 1250.273502856975 -3887.758642822467  -837.5038884512159 208.8755670246229 2714.752233051721  224.4649155347307 -1929.587208311137 -3363.724518609238  243.6475132757158 1231.038209692749 4512.115314643523  143.4994705695902 2537.375356617383 1122.871198411434  -616.3602101825883 1639.287980354154 -2505.134507084485  821.2449916973948 -1270.979910630345 -1391.848995779573  -15.18052314325051 661.5696214976396 5178.086821705474  745.6475153316195 -1229.430869601076 2421.215489367406  -945.8076979679169 631.3472783061322 -120.9487369244701  -516.3823833250207 -2253.946104930553 51.46008590486445  -317.1132268846571 -2454.226269505659 -885.0689714762044  878.5768931892571 1168.712544591544 -37.03635666863082  -222.0397689232131 1262.930938407433 4506.133625146204  275.9788958128741 1146.432890384009 -4554.037907990923  -333.9302006553889 187.5416020821988 -5030.067450709898  -366.3535867467581 2292.783333815431 1696.944524788295  834.4246384407038 -1182.031801043712 1464.385115604007  -68.67196627316793 -2606.908035079384 -536.4949734059976  -631.8172536634446 672.7428443028139 -3857.384604314336  -433.6586858289923 565.9499568611666 -4665.192838539519  -279.8961792103545 2094.236110742602 2802.621364521051  -696.6161145681073 -1870.019307956592 -298.171319604263  348.3411356110432 301.292971344633 4975.862011084147  198.3513208941237 306.2166380430838 5214.390673631478  75.7046887197168 -346.6979147434568 5298.04129170927  230.7620902480249 -347.3
[...]
<PointData  Vectors="Tidal Force"> 
<DataArray  type="Float64"  Name="Tidal Force"  NumberOfComponents="3" format="ascii">-3.6992116671802249e-18 1.1385002847557174e-17 -0.0000000000000000e+00  -7.2134627510014385e-17 2.2200755552736493e-16 -0.0000000000000000e+00  1.9520739967710047e-14 -6.0078660026559214e-14 0.0000000000000000e+00  3.8549484783685128e-14 -1.1864311467439332e-13 0.0000000000000000e+00  5.6544299938683319e-14 -1.7402546102633520e-13 0.0000000000000000e+00  7.3018739098470472e-14 -2.2472857120793107e-13 0.0000000000000000e+00  8.7623226760497982e-14 -2.6967656245008679e-13 0.0000000000000000e+00  9.9978593728879924e-14 -3.0770247196092773e-13 0.0000000000000000e+00  1.0981849676357936e-13 -3.3798657953542983e-13 0.0000000000000000e+00  1.1696907291623871e-13 -3.5999379003975788e-13 0.0000000000000000e+00  1.2129715056683952e-13 -3.7331424337139975e-13 0.0000000000000000e+00  1.2274909114620783e-13 -3.7778285698906595e-13 0.0000000000000000e+00  1.2130084977850672e-13 -3.7332562837424732e-13 0.0000000000000000e+00  1.1696907291623871e-13 -3.5999379003975788e-13 0.0000000000000000e+00  1.0981849676357936e-13 -3.3798657953542983e-13 0.0000000000000000e+00  9.9952699247209639e-14 -3.0762277694099485e-13 0.0000000000000000e+00  8.7625076366331585e-14 -2.6968225495151057e-13 0.0000000000000000e+00  7.3063129638476632e-14 -2.2486519124210176e-13 0.0000000000000000e+00  5.6566495208686411e-14 -1.7409377104342052e-13 0.0000000000000000e+00  3.8582777688689741e-14 -1.1874557970002133e-13 0.0000000000000000e+00  1.9563280901882617e-14 -6.0209587559306113e-14 0.0000000000000000e+00  3.4838620599753298e-13 -1.0722224906786635e-12 0.0000000000000000e+00  -1.8382492537718695e-13 5.6575494650365873e-13 -0.0000000000000000e+00  3.9243641853031498e-13 -1.2077951045873744e-12 0.0000000000000000e+00  3.7989609097857391e-13 -1.1691999449341554e-12 0.0000000000000000e+00  -1.6956816361187431e-13 5.2187714552917327e-13 -0.0000000000000000e+00  -1.6990479187358771e-13 5.2291318078830100e-13 -0.0000000000000000e+00  -2.1381258475718345e-13 6.5804747208738091e-13 -0.0000000000000000e+00  2.8530539904294198e-13 -8.7807972962069459e-13 0.0000000000000000e+00  3.5603802533109513e-13 -1.0957723690688354e-12 0.0000000000000000e+00  5.9034054351278960e-13 -1.8168813719288355e-12 0.0000000000000000e+00  6.1405064069358123e-13 -1.8898535476802533e-12 0.0000000000000000e+00  8.1192517198271886e-13 -2.4988487349989343e-12 0.0000000000000000e+00  7.9547107848710110e-13 -2.4482082423329997e-12 0.0000000000000000e+00  9.5345701036903426e-13 -2.9344389439464717e-12 0.0000000000000000e+00  8.8585021793964818e-13 -2.7263666319045165e-12 0.0000000000000000e+00  1.0018648942457548e-12 -3.0834230912096049e-12 0.0000000000000000e+00  8.9131765278374078e-13 -2.7431936661132063e-12 0.0000000000000000e+00  9.5262468774391863e-13 -2.9318773183057714e-12 0.0000000000000000e+00  7.9168493534574243e-13 -2.4365556919185252e-12 0.0000000000000000e+00  8.0820931386303628e-13 -2.4874124996385625e-12 0.0000000000000000e+00  7.4534861000264273e-13 -2.2939471462500239e-12 0.0000000000000000e+00  -1.8692301514845034e-13 5.7528988638848777e-13 -0.0000000000000000e+00  -4.4347074269073328e-13 1.3648626038722730e-12 -0.0000000000000000e+00  -4.0822280432000664e-13 1.2563806042393244e-12 -0.0000000000000000e+00  6.0995746298384654e-13 -1.8772560420294316e-12 0.0000000000000000e+00  5.7542347246488547e-13 -1.7709713479460613e-12 0.0000000000000000e+00  -4.4092568506371324e-13 1.3570297219131536e-12 -0.0000000000000000e+00  -6.8100637186954342e-13 2.0959220992210380e-12 -0.0000000000000000e+00  3.8593320441941208e-13 -1.1877802695813686e-12 0.0000000000000000e+00  6.5861689325393528e-13 -2.0270143694861986e-12 0.0000000000000000e+00  3.8394672775413624e-13 -1.1816665230522305e-12 0.0000000000000000e+00  -2.4766222111771599e-13 7.6222594064395291e-13 -0.0000000000000000e+00  -1.8078972220426549e-13 5.5641355166723794e-13 -0.0000000000000000e+00  -4.4105145826039741e-13 1.3574168120099707e-12 -0.0000000000000000e+00  9.2897932676730284e-13 -2.8591043801041857e-12 0.0000000000000000e+00  9.2451992710251696e-13 -2.8453797591714559e-12 0.0000000000000000e+00  5.6606446694691940e-13 -1.7421672907417415e-12 0.0000000000000000e+00  -4.1488323492676450e-13 1.2768793018663510e-12 -0.0000000000000000e+00  -6.6765776656852361e-13 2.0548393164456283e-12 -0.0000000000000000e+00  -6.6348690541377802e-13 2.0420027257350073e-12 -0.0000000000000000e+00  -8.5712583934399382e-13 2.6379620847932350e-12 -0.0000000000000000e+00  -8.2053323753224711e-13 2.5253416366251995e-12 -0.0000000000000000e+00  -9.6940986068374899e-13 2.9835367687265623e-12 -0.0000000000000000e+00  -8.8546734953209522e-13 2.7251882841097944e-12 -0.0000000000000000e+00  -9.9225989115192141e-13 3.0538619313159230e-12 -0.0000000000000000e+00  -8.7519463873233582e-13 2.6935721312021282e-12 -0.0000000000000000e+00  -1.0232777809812273e-12 3.1493251801926892e-12 -0.0000000000000000e+00  7.4011977431108341e-13 -2.2778544447250020e-12 0.0000000000000000e+00  8.1481425629478657e-13 -2.5077404222228766e-12 0.0000000000000000e+00  -9.2167708293628896e-13 2.8366303844831079e-12 -0.0000000000000000e+00  -7.5664415282837746e-13 2.3287112524450393e-12 -0.0000000000000000e+00  -7.6271085996255287e-13 2.3473826571150336e-12 -0.0000000000000000e+00  -5.5117883919818647e-13 1.6963540392831714e-12 -0.0000000000000000e+00  -5.3032638303029135e-13 1.6321767782314915e-12 -0.0000000000000000e+00  -5.1297523070538262e-13 1.5787754223750248e-12 -0.0000000000000000e+00  -7.0676398270811948e-13 2.1751958740485790e-12 -0.0000000000000000e+00  -2.9840430755642720e-13 9.1839402470389457e-13 -0.0000000000000000e+00  -4.4503735883178405e-13 1.3696841525782136e-12 -0.0000000000000000e+00  -2.1495564116234209e-13 6.6156543796727613e-13 -0.0000000000000000e+00  2.1575652048828664e-14 -6.6403029108377224e-14 0.0000000000000000e+00  -5.8858896678837988e-13 1.8114905730805170e-12 -0.0000000000000000e+00  3.9312632150624396e-13 -1.2099184076184435e-12 0.0000000000000000e+00  5.9577468545187735e-13 -1.8336059411118966e-12 0.0000000000000000e+00  8.7880321971367018e-14 -2.7046782014799204e-13 0.0000000000000000e+00  3.2264524161145920e-13 -9.9299994836393679e-13 0.0000000000000000e+00  -2.3430621739336177e-13 7.2112038786284773e-13 -0.0000000000000000e+00  -7.1160255156879102e-13 2.1900874577731832e-12 -0.0000000000000000e+00  -3.0256961989367219e-13 9.3121353791024407e-13 -0.0000000000000000e+00  -6.4782629282077048e-13 1.9938043161798740e-12 -0.0000000000000000e+00  2.3224020767724168e-13 -7.1476186377248695e-13 0.0000000000000000e+00  -1.4254172317145556e-13 4.3869831472492064e-13 -0.0000000000000000e+00  -4.4159894158714005e-13 1.3591017924314090e-12 -0.0000000000000000e+00  3.7566419283131984e-13 -1.1561755016765500e-12 0.0000000000000000e+00  5.9639060419446283e-13 -1.8355015440860149e-12 0.0000000000000000e+00  -8.1606643944412722e-13 2.5115942456867744e-12 -0.0000000000000000e+00  9.5173872654962898e-13 -2.9291506101237814e-12 0.0000000000000000e+00  -1.2415109236806908e-13 3.8209777306829011e-13 -0.0000000000000000e+00  6.7344148401015994e-15 -2.0726397683977836e-14 0.0000000000000000e+00  6.2261061649143651e-13 -1.9161984442695005e-12 0.0000000000000000e+00  8.1320694882539675e-13 -2.5027936384856125e-12 0.0000000000000000e+00  3.8034924440780347e-13 -1.1705946077829812e-12 0.0000000000000000e+00  -8.1519712470233974e-13 2.5089187700175986e-12 -0.0000000000000000e+00  6.3949936735794781e-13 -1.9681766747700227e-12 0.0000000000000000e+00  3.8748687331962783e-13 -1.1925619707773426e-12 0.0000000000000000e+00  -8.5463072107448089e-13 2.6302829003725577e-12 -0.0000000000000000e+00  -7.9472013851866358e-13 2.4458970867549456e-12 -0.0000000000000000e+00  -5.9010194436025663e-13 1.8161470392451681e-12 -0.0000000000000000e+00  -2.8048717584643981e-13 8.6325076341175147e-13 -0.0000000000000000e+00  4.8590809893662480e-13 -1.4954713565394491e-12 0.0000000000000000e+00  -6.2995910046829001e-13 1.9388147524261731e-12 -0.0000000000000000e+00  7.4396695444495091e-13 -2.2896948476864611e-12 0.0000000000000000e+00  -5.1119960910513592e-13 1.5733106210081971e-12 -0.0000000000000000e+00  -2.3449117797672082e-13 7.2168963800522552e-13 -0.0000000000000000e+00  -9.6170440278101247e-13 2.9598218077951005e-12 -0.0000000000000000e+00  1.2500006144568695e-13 -3.8471063122180452e-13 0.0000000000000000e+00  8.1614782210080492e-13 -2.5118447157494201e-12 0.0000000000000000e+00  1.8814190539278621e-13 -5.7904124482675796e-13 0.0000000000000000e+00  3.1343420456018044e-13 -9.6465129127351947e-13 0.0000000000000000e+00  8.6084354706951000e-14 -2.6494040126550304e-13 0.0000000000000000e+00  1.3606810275389020e-13 -4.1877455974169557e-13 0.0000000000000000e+00  -8.9151001179043412e-14 2.7437856862612791e-13 -0.0000000000000000e+00  -4.7604415102608880e-13 1.4651132464464376e-12 -0.0000000000000000e+00  -5.5057956690810315e-13 1.6945096688218674e-12 -0.0000000000000000e+00  9.4423302607692013e-13 -2.9060504393460878e-12 0.0000000000000000e+00  -7.4512480769677838e-13 2.2932583535777465e-12 -0.0000000000000000e+00  -8.4393999935632983e-13 2.5973802421431176e-12 -0.0000000000000000e+00  3.7085521766398538e-13 -1.1413749979747255e-12 0.0000000000000000e+00  2.8566607218049207e-13 -8.7918976739833142e-13 0.0000000000000000e+00  1.0128127111747744e-12 -3.1171170071369501e-12 0.0000000000000000e+00  -6.7827080484166377e-13 2.0875028896152698e-12 -0.0000000000000000e+00  -1.4036288749948647e-13 4.3199254804770948e-13 -0.0000000000000000e+00  -6.5912368525233907e-13 2.0285741148763139e-12 -0.0000000000000000e+00  -5.7837544337529536e-13 1.7800565802184119e-12 -0.0000000000000000e+00  5.1186361759939487e-13 -1.5753542290193338e-12 0.0000000000000000e+00  -1.0002039482071906e-12 3.0783112249310515e-12 -0.0000000000000000e+00  -8.9690161279534939e-13 2.7603793279115938e-12 -0.0000000000000000e+00  6.0258493413115627e-13 -1.8545657313542498e-12 0.0000000000000000e+00  8.0901759161231500e-14 -2.4899001227607542e-13 0.0000000000000000e+00  1.1692098316456540e-13 -3.5984578500273963e-13 0.0000000000000000e+00  -9.6045961805500603e-13 2.9559907543368973e-12 -0.0000000000000000e+00  1.0147566469058777e-12 -3.1230998261333414e-12 0.0000000000000000e+00  7.0763144784407320e-13 -2.1778656572163307e-12 0.0000000000000000e+00  -1.4353681110992709e-13 4.4176088049091349e-13 -0.0000000000000000e+00  3.2096210030289212e-13 -9.8781977206829823e-13 0.0000000000000000e+00  4.4120127633291826e-13 -1.3578779046252968e-12 0.0000000000000000e+00  6.3728168996347316e-13 -1.9613513655629124e-12 0.0000000000000000e+00  -4.2399624286886288e-13 1.3049262563813081e-12 -0.0000000000000000e+00  -1.8671216008342110e-13 5.7464094122617704e-13 -0.0000000000000000e+00  7.7665503834198919e-13 -2.3902984253489005e-12 0.0000000000000000e+00  -4.4684442373120165e-13 1.3752457264692450e-12 -0.0000000000000000e+00  -9.6557747739655041e-13 2.9717419057764925e-12 -0.0000000000000000e+00  -7.1335042908153374e-13 2.1954668716186540e-12 -0.0000000000000000e+00  5.9630182311445062e-13 -1.8352283040176739e-12 0.0000000000000000e+00  -2.5864148134590700e-13 7.9601662909550253e-13 -0.0000000000000000e+00  5.7074027049423533e-13 -1.7565579343410537e-12 0.0000000000000000e+00  -3.6409675794804724e-13 1.1205745977722386e-12 -0.0000000000000000e+00  8.0854039330724888e-13 -2.4884314573934188e-12 0.0000000000000000e+00  9.1139882331902870e-13 -2.8049971540711704e-12 0.0000000000000000e+00  -3.4203280995915073e-13 1.0526687482879840e-12 -0.0000000000000000e+00  -5.1798026409107760e-13 1.5941793312277697e-12 -0.0000000000000000e+00  -4.0995033616857968e-13 1.2616974005691337e-12 -0.0000000000000000e+00  -1.1490861201761927e-13 3.5365234345366851e-13 -0.0000000000000000e+00  -9.3509597325898537e-13 2.8779294823126217e-12 -0.0000000000000000e+00  5.6349351483822943e-13 -1.7342547137626893e-12 0.0000000000000000e+00  1.0019314800557638e-12 -3.0836280212608608e-12 0.0000000000000000e+00  -3.4066410164229413e-13 1.0484562972343877e-12 -0.0000000000000000e+00  -2.7429839472724729e-13 8.4420365364778831e-13 -0.0000000000000000e+00  -8.4738766463014209e-13 2.6079910647970413e-12 -0.0000000000000000e+00  6.3690991919092161e-13 -1.9602071727767330e-12 0.0000000000000000e+00  -7.2946604470960437e-14 2.2450656365240371e-13 -0.0000000000000000e+00  -9.3800910244688978e-14 2.8868951720550726e-13 -0.0000000000000000e+00  1.4409909128333850e-13 -4.4349140092374220e-13 0.0000000000000000e+00  1.6390836976108862e-13 -5.0445809117241086e-13 0.0000000000000000e+00  -2.2570739987300144e-13 6.9465594874370114e-13 -0.0000000000000000e+00  -1.3023259634891336e-13 4.0081471774967407e-13 -0.0000000000000000e+00  6.2903244794566135e-14 -1.9359628092128595e-13 0.0000000000000000e+00  2.0864663566396621e-13 -6.4214831561076737e-13 0.0000000000000000e+00  -6.8559339433684675e-14 2.1100395027520090e-13 -0.0000000000000000e+00  -1.2508514331403212e-13 3.8497248628729834e-13 -0.0000000000000000e+00  -1.0579560407552079e-13 3.2560538893871137e-13 -0.0000000000000000e+00  1.6511801197625648e-13 -5.0818098710356200e-13 0.0000000000000000e+00  1.4405839995499949e-13 -4.4336616589241907e-13 0.0000000000000000e+00  -1.1818981276640819e-13 3.6375084097945176e-13 -0.0000000000000000e+00  -2.4395191181553422e-13 7.5080678278785303e-13 -0.0000000000000000e+00  4.0635840163974769e-14 -1.2506425628041556e-13 0.0000000000000000e+00  -7.7859157564975784e-14 2.3962584743395961e-13 -0.0000000000000000e+00  1.8560054697743345e-13 -5.7121974787048604e-13 0.0000000000000000e+00  2.1458202078395689e-13 -6.6041555267967278e-13 0.0000000000000000e+00  1.9550703582214205e-13 -6.0170878549624420e-13 0.0000000000000000e+00  -8.8205852598078871e-14 2.7146970039857704e-13 -0.0000000000000000e+00  -7.1461370986587577e-14 2.1993548500910951e-13 -0.0000000000000000e+00  3.2179442292800775e-13 -9.9038139770899856e-13 0.0000000000000000e+00  -2.3316501059403668e-13 7.1760811448437623e-13 -0.0000000000000000e+00  2.3118778195792885e-13 -7.1152283046235694e-13 0.0000000000000000e+00  2.1662028641257314e-13 -6.6668868924867679e-13 0.0000000000000000e+00  -5.4049181669170281e-14 1.6634627660565788e-13 -0.0000000000000000e+00  -4.1331291957404641e-14 1.2720463681575629e-13 -0.0000000000000000e+00  3.5766567846465448e-13 -1.1007817703217606e-12 0.0000000000000000e+00  -1.9930797581016975e-13 6.1340687592210920e-13 -0.0000000000000000e+00  -3.5053729758199810e-14 1.0788428698345180e-13 -0.0000000000000000e+00  -2.7191055359608240e-14 8.3685463430969023e-14 -0.0000000000000000e+00  2.5365124480688080e-13 -7.8065826025414792e-13 0.0000000000000000e+00  2.4473244547730933e-13 -7.5320901838868749e-13 0.0000000000000000e+00  -1.7772677494384030e-13 5.4698676930946069e-13 -0.0000000000000000e+00  3.7504457487706715e-13 -1.1542685136995844e-12 0.0000000000000000e+00  2.6082586583537691e-13 -8.0273947327698498e-13 0.0000000000000000e+00  2.5766858867743853e-13 -7.9302237334659505e-13 0.0000000000000000e+00  -1.1772741130801068e-14 3.6232771562350705e-14 -0.0000000000000000e+00  -9.1389024237687449e-15 2.8126649534890002e-14 -0.0000000000000000e+00  3.9227920203445972e-13 -1.2073112419663530e-12 0.0000000000000000e+00  -1.5707222660013955e-13 4.8341860591012528e-13 -0.0000000000000000e+00  2.5427826118446780e-13 -7.8258801823680882e-13 0.0000000000000000e+00  2.5740779425490233e-13 -7.9221973064584218e-13 0.0000000000000000e+00  -1.0711067382320339e-14 3.2965275745101796e-14 -0.0000000000000000e+00  -1.3381898206024462e-14 4.1185247801038074e-14 -0.0000000000000000e+00  3.9372744340216073e-13 -1.2117684705811718e-12 0.0000000000000000e+00  -1.4370327563495021e-13 4.4227320561905357e-13 -0.0000000000000000e+00  -2.6982049900412564e-14 8.3042210770082038e-14 -0.0000000000000000e+00  -3.4894663656511064e-14 1.0739473186100684e-13 -0.0000000000000000e+00  2.3772798818550350e-13 -7.3165151549683808e-13 0.0000000000000000e+00  2.4702965592262819e-13 -7.6027910515702053e-13 0.0000000000000000e+00  -1.5860924904785290e-13 4.8814907459328519e-13 -0.0000000000000000e+00  3.8297938390316858e-13 -1.1786893448075944e-12 0.0000000000000000e+00  2.2915876435848051e-13 -7.0527815640047179e-13 0.0000000000000000e+00  2.4352095365630779e-13 -7.4948042995611261e-13 0.0000000000000000e+00  -4.4405336852831407e-14 1.3666557418207633e-13 -0.0000000000000000e+00  -5.7125076170430592e-14 1.7581290647340167e-13 -0.0000000000000000e+00  3.7966673985520890e-13 -1.1684940747576069e-12 0.0000000000000000e+00  -1.8065285137257990e-13 5.5599230656187845e-13 -0.0000000000000000e+00  -5.6409278712831249e-14 1.7360990842239934e-13 -0.0000000000000000e+00  1.8147222675686029e-13 -5.5851408469261236e-13 0.0000000000000000e+00  1.9964090486021600e-13 -6.1443152617838937e-13 0.0000000000000000e+00  -1.8816040145112219e-13 5.7909816984099577e-13 -0.0000000000000000e+00  3.5473960203591477e-13 -1.0917762330693426e-12 0.0000000000000000e+00  3.0645194253837774e-13 -9.4316209839875544e-13 0.0000000000000000e+00  4.7991722564162644e-13 -1.4770333444278300e-12 0.0000000000000000e+00  4.7383572166078212e-13 -1.4583163997464463e-12 0.0000000000000000e+00  5.8438851194029675e-13 -1.7985629023471159e-12 0.0000000000000000e+00  4.6249948750670843e-13 -1.4234270585201072e-12 0.0000000000000000e+00  4.3102289543067174e-13 -1.3265520692902431e-12 0.0000000000000000e+00  -3.1785661210829442e-13 9.7826206217777407e-13 -0.0000000000000000e+00  -3.1579430160384143e-13 9.7191492309026076e-13 -0.0000000000000000e+00  -4.4738080942294277e-13 1.3768965518821408e-12 -0.0000000000000000e+00  -3.1833750962502787e-13 9.7974211254795631e-13 -0.0000000000000000e+00  -3.5784324062467902e-13 1.1013282504584434e-12 -0.0000000000000000e+00  5.2963463044852861e-13 -1.6300477826989983e-12 0.0000000000000000e+00  5.3339857831988466e-13 -1.6416320230963877e-12 0.0000000000000000e+00  6.3430382457139303e-13 -1.9521864382706290e-12 0.0000000000000000e+00  4.9910873577095751e-13 -1.5360987392009567e-12 0.0000000000000000e+00  4.9430530942112396e-13 -1.5213153130034036e-12 0.0000000000000000e+00  6.4739348505571040e-13 -1.9924722708467100e-12 0.0000000000000000e+00  5.5361292047519086e-13 -1.7038453711568640e-12 0.0000000000000000e+00  4.8632610985501627e-13 -1.4967578618612229e-12 0.0000000000000000e+00  4.5213614602110285e-13 -1.3915319730426756e-12 0.0000000000000000e+00  4.7992277445912710e-13 -1.4770504219321013e-12 0.0000000000000000e+00  4.7417419952832933e-13 -1.4593581275069975e-12 0.0000000000000000e+00  6.4561046503212938e-13 -1.9869846994741869e-12 0.0000000000000000e+00  -3.1072268240813727e-13 9.5630608418625989e-13 -0.0000000000000000e+00  -3.1864084498173658e-13 9.8067568278145619e-13 -0.0000000000000000e+00  -2.9220442880223306e-13 8.9931275993138873e-13 -0.0000000000000000e+00  -4.3146680083073354e-13 1.3279182696319499e-12 -0.0000000000000000e+00  -2.7910736989458154e-13 8.5900415734961268e-13 -0.0000000000000000e+00  -3.1435160905364123e-13 9.6747477197971362e-13 -0.0000000000000000e+00  -3.0965176063048872e-13 9.5301012586189218e-13 -0.0000000000000000e+00  -4.3363083965603377e-13 1.3345784962977707e-12 -0.0000000000000000e+00  -2.9585185150607285e-13 9.1053837273908006e-13 -0.0000000000000000e+00  -2.8104945601985112e-13 8.6498128384458018e-13 -0.0000000000000000e+00  -3.3082419860759467e-13 1.0181721896598857e-12 -0.0000000000000000e+00  -3.1398723670442383e-13 9.6635334919922912e-13 -0.0000000000000000e+00  -3.2108417428790919e-13 9.8819547716226767e-13 -0.0000000000000000e+00  -3.0569545375243942e-13 9.4083386531642977e-13 -0.0000000000000000e+00  -4.1992895964079843e-13 1.2924084457504192e-12 -0.0000000000000000e+00  5.9957377583407159e-13 -1.8452983390363382e-12 0.0000000000000000e+00  4.3862477540672722e-13 -1.3499482501419731e-12 0.0000000000000000e+00  4.5420400534305655e-13 -1.3978961896344602e-12 0.0000000000000000e+00  3.4345515684518151e-13 -1.0570462818828696e-12 0.0000000000000000e+00  5.0772789895548737e-13 -1.5626257958357648e-12 0.0000000000000000e+00  2.61251