<?xml version="1.0"?>
<VTKFile type="UnstructuredGrid"  version="0.1"  >
<UnstructuredGrid>
<Piece  NumberOfPoints="1216" NumberOfCells="5256">
<Points>
<DataArray  type="Float64"  NumberOfComponents="3"  format="ascii">-0.03373685470656405 -0.003620050243259417 5364.628171666825  -0.06267743987392269 0.1619626284047161 -5364.778628286449  155.0964497989105 0.1299645197269787 -5297.583709797465  305.9649414163691 0.1612564997769595 -5097.868702123053  448.4968854700054 0.1502583302397733 -4771.123000253314  579.0877375595603 0.1906550338249162 -4326.578584730436  694.4632421957577 0.1000582247861753 -3776.254148473728  792.0459708300995 0.02789974679181823 -3134.561171655787  869.779604113732 -0.007889770701932442 -2417.911172014254  926.2811409482471 -0.03105430884169964 -1644.137385928652  960.5122438888578 -0.03075591266728461 -831.7798374342176  972.0435716900313 -0.01778606853168995 -0.0354383281025253  960.5201787251992 -0.03593460508790087 831.7605572419411  926.3033362522308 -0.02667646203526678 1644.135473054033  869.7904062223389 -0.004104862393581623 2417.857933458849  792.0795610574996 0.1065948580083955 3134.445842769434  694.556394254718 0.1215345752029472 3776.224644775187  579.2140205293086 0.1141887506773614 4326.632912338098  448.6704825456457 0.1523181642037318 4771.190407110832  306.0700212215692 0.1121650066783703 5097.876336455406  155.16117590468 0.04493079353663624 5297.557348945115  387.7422803362461 -771.8520352883683 -4656.073045636208  385.0994547030623 599.0614843459668 4772.426936520493  928.1677856893941 -710.2151271304687 -788.4984585899249  674.516502200213 -760.0737650504464 3560.610485991273  847.0378050647138 713.2940553476004 2239.663144147206  843.5797315713714 713.0250993340308 -2278.916765049301  432.5578580864433 691.8417723348838 -4593.607111378167  149.6193436534874 -686.5798102219388 5099.711251362125  670.0151731496702 -700.0100237409546 -3636.362331026438  470.2163600162897 -1369.109281194241 -3763.143036919009  694.8055898489059 -1357.635519314646 -2585.493195655072  481.1460262176813 -1937.503874270849 -2486.690427521117  674.1835655212046 -1832.680469467265 -1222.375043796918  427.4479139088093 -2320.46824369768 -1039.855378072878  604.9485186256211 -2088.465635626793 262.7039156674005  320.8313915694912 -2480.069684525624 474.7136892455121  462.6686171887117 -2148.531560756209 1800.517268288445  167.7392632397313 -2402.4856990023 1916.68015787969  296.2343903606412 -1945.100176663989 3168.304104277957  -11.52244235318979 -2087.78021975567 3175.876730060847  702.4160195654811 -1694.128761368051 1516.875633081543  670.0607986205342 700.0904208348751 3636.42065661283  681.0441605806604 1365.506929264499 2674.583016818436  820.770035608996 1320.51965425444 1208.160968138586  110.6234017786446 -1536.366187722226 4252.147814137496  403.2316275514984 -1352.321312187721 4005.027411200872  469.9968308287268 1289.72535797093 3879.990528333603  455.123711626213 1904.41651949478 2715.160053006725  929.8383127333673 -692.8894927958064 788.3296263620589  826.4361953639393 -1430.183603972537 91.34812781262818  848.8249679347271 -714.0217544087136 -2217.680120644273  149.522196570893 686.8588600960242 -5099.72923418969  663.4441889261919 682.1050968131724 -3686.543003656391  675.8929154886731 1357.566937880771 -2728.505063332067  208.0269798730046 -2328.306345410807 -2158.821083705624  -145.7593864492744 -2432.017211371075 1814.492713103474  201.2746815473988 -1393.692171194499 -4365.763417262975  815.3812088120693 1335.933561302757 -1248.670959150093  616.4085206999888 1922.977398023477 -1505.594458604168  439.0352196920509 1853.897386734172 -2921.814487266287  348.8081184489943 2324.374804174018 -1625.601163545228  154.0767439417588 2166.103699778821 -2845.550818634251  45.31860888862569 2515.214925320652 -1476.02570010565  -158.1044767048905 2232.108882990456 -2626.267460853295  -261.3642204775205 2474.509609554712 -1112.649413113703  -457.4737123924024 2108.546383952542 -2010.323897747136  -50.40555239964169 2623.245318079984 98.50265972728596  -319.2951811024111 -2012.508876970297 2926.317712416193  -441.3088559354886 -2245.455184730638 1446.812589027049  -536.8410189129502 2202.990599365866 -542.7666318051463  -702.914537265639 1723.130783436304 -1376.016298735671  -747.6517460431646 1724.370840449657 123.0598765741744  -869.5958381150654 1138.871792858236 -858.7179236672142  -880.8130300612669 1081.417686234355 801.0903333487144  -774.9927478549998 1070.861817958976 -2449.057638678328  -718.8345037402692 1589.199390958333 1727.183125166962  -915.7414784030145 471.5814445620171 -1558.954144601014  -814.9429685438595 882.6237487963725 2356.90456383293  -783.247140085143 299.3714192547983 -3144.329368039537  -876.5254113352315 -341.1546351945257 -2240.780215345273  -611.5114335174512 1318.844569119694 3206.740784448047  -137.3488645506511 -1057.858961567368 4821.86782883758  -597.724257016167 -1731.225123346451 2382.79480310788  -705.7982151774106 -456.3586286165473 -3593.029658102686  -762.978251245493 -1080.659611972585 -2542.186641399932  -935.6509929121943 299.7242088645403 1344.964176837263  -333.3193057229002 1726.362756758498 -3562.790504526772  -672.8942822095582 561.1788967883604 3720.071010752238  214.7071423490067 1740.057754502398 3783.707547216454  -904.3146796029167 -893.8253019981764 -901.7975113204609  -573.7256079140425 180.7876086390631 -4332.574295752391  -449.1286086847061 992.2871303624537 4299.95136636419  -553.3232568031067 -1148.663600773838 -3742.541265387318  -581.2924144810248 -1727.418299580542 -2506.43383019991  -491.7951466551309 1944.752313036467 2405.120414865836  -253.6145147847726 -2537.661588287586 343.7748496780944  -471.7659603641624 166.5440877908625 4690.711845743933  -693.223529215412 -242.999477934009 3750.247386774006  -337.066339959179 -1714.987771712791 -3575.440240861713  -339.7313312143182 -2207.955575853535 -2212.197668571888  -289.3889321056234 -1074.475885409613 -4605.369619305979  506.7434339771894 2267.957490048441 -150.5716305827036  -675.8788516300951 -1869.863867991643 945.1741022146908  -806.6488407033365 -1262.354736332458 1652.351410462505  179.7617492127515 2262.57470624965 2480.567662051265  -64.72867311174709 2028.127509527955 3314.290790808577  -22.31554926545884 1513.867419886593 4325.410287454535  -268.6338130772664 635.5016620270005 4983.774257329242  -448.437657357728 -1398.716081106814 3793.950289931255  235.2658148059408 1700.664320465543 -3824.126536497261  -558.4924614665532 -2100.997274344462 -1164.698363101361  -73.80527064175098 1293.597955801486 -4607.294430492644  -162.9466552242664 551.2834739854086 -5160.585225026303  -111.9530624865664 2444.07595184279 1814.22804647734  -209.5125239433381 -390.256113794459 5176.039823316642  -72.50601176259256 -2128.158803296715 -3042.57674837248  -451.4878300794078 -631.8306100056095 4576.628693522535  -693.0855467422919 -1033.947809276389 3145.182179374778  -856.2805823663182 -500.9500491166886 2357.833503416263  -934.3294915668833 -655.4972708254202 746.2816705243447  -967.9807534295699 -85.36410417421185 -461.8264697856467  -381.1255003050184 1103.160344480875 -4376.006330341163  -576.1702040457353 1232.211627417736 -3524.57923694283  -85.60482767293657 -2463.309142918942 -1748.788102430501  -34.06622760218949 1910.065278714276 -3603.102328097707  399.4773952249284 2306.944428830796 1394.356227099508  843.3250115339827 -682.024347553412 2320.508837576984  49.57105655498847 -720.0259801278576 -5136.557464903379  159.1914826199247 -2560.819403316888 -822.8332982798813  -303.5360827482235 1649.989987218046 3781.514588299206  931.9099333329765 665.7776462262204 -805.2858859163141  634.2842749304295 1906.820532937974 1371.871051903956  744.675705403174 1734.707168940323 -60.89337376840071  -753.0943557504814 -1565.764113781918 -1347.323656572681  -332.855179522828 2471.878307149193 415.6238513783879  -554.1575170385635 2133.394200746715 975.8974130461207  -54.14362711645212 -1570.955363973795 -4229.235978474167  -231.1320366763144 -283.6408520725865 -5179.875271799215  -485.4101665642988 -459.2967084798287 -4562.493355698231  232.5557315595204 2553.294239571841 -272.8804419979043  27.32702437645763 -2608.742329576995 593.7094487538441  548.125674484543 -1646.582328312189 2905.865471092597  933.5013310728295 674.4927657205182 714.6933303920401  432.8796697478202 -686.4959890718503 4596.132430143643  -831.0132638891317 -1409.03674785089 131.4378745943268  -178.6723007678834 -1701.086856577241 3907.8934952605  482.881437630761 1250.273502856975 -3887.758642822467  -837.5038884512159 208.8755670246229 2714.752233051721  224.4649155347307 -1929.587208311137 -3363.724518609238  243.6475132757158 1231.038209692749 4512.115314643523  143.4994705695902 2537.375356617383 1122.871198411434  -616.3602101825883 1639.287980354154 -2505.134507084485  821.2449916973948 -1270.979910630345 -1391.848995779573  -15.18052314325051 661.5696214976396 5178.086821705474  745.6475153316195 -1229.430869601076 2421.215489367406  -945.8076979679169 631.3472783061322 -120.9487369244701  -516.3823833250207 -2253.946104930553 51.46008590486445  -317.1132268846571 -2454.226269505659 -885.0689714762044  878.5768931892571 1168.712544591544 -37.03635666863082  -222.0397689232131 1262.930938407433 4506.133625146204  275.9788958128741 1146.432890384009 -4554.037907990923  -333.9302006553889 187.5416020821988 -5030.067450709898  -366.3535867467581 2292.783333815431 1696.944524788295  834.4246384407038 -1182.031801043712 1464.385115604007  -68.67196627316793 -2606.908035079384 -536.4949734059976  -631.8172536634446 672.7428443028139 -3857.384604314336  -433.6586858289923 565.9499568611666 -4665.192838539519  -279.8961792103545 2094.236110742602 2802.621364521051  -696.6161145681073 -1870.019307956592 -298.171319604263  348.3411356110432 301.292971344633 4975.862011084147  198.3513208941237 306.2166380430838 5214.390673631478  75.7046887197168 -346.6979147434568 5298.04129170927  230.7620902480249 -347.3
[...]
<PointData  Vectors="Velocity"> 
<DataArray  type="Float64"  Name="Velocity"  NumberOfComponents="3" format="ascii">-1.2958399396723245e-09 3.7970657201629301e-10 -6.1267481917193624e-06  -2.8960217478249135e-09 7.2595936211586891e-09 6.1201319215413025e-06  -6.2528587090338632e-08 5.8432453094161346e-09 6.0961558795587198e-06  -1.4250584253541485e-07 7.3499431650543237e-09 6.0149109021612011e-06  -2.5626784291279358e-07 6.9008733313318325e-09 5.8525309245400380e-06  -4.0592334288440618e-07 8.8592426450945350e-09 5.5600254103690342e-06  -5.9065250904250274e-07 4.5644858349137374e-09 5.0966782762336322e-06  -7.9377480316443493e-07 1.1186572649061690e-09 4.4354097137857729e-06  -9.9409123277300089e-07 -5.0316170135006171e-10 3.5656061511757138e-06  -1.1616536866609840e-06 -1.4821561755668673e-09 2.5006855856591612e-06  -1.2749907822184118e-06 -1.4969901098429290e-09 1.2896603800644427e-06  -1.3119963938244812e-06 -8.6112330139594880e-10 -1.5335709007752134e-09  -1.2745231566440933e-06 -1.6704065324032451e-09 -1.2905499052613468e-06  -1.1605759822174571e-06 -1.0830468938013760e-09 -2.5006867658459015e-06  -9.9353092605980799e-07 1.0603559254747631e-11 -3.5679771609179018e-06  -7.9203427206908106e-07 5.2585364636810367e-09 -4.4406102030477508e-06  -5.8610983718470431e-07 6.1190589149720624e-09 -5.0980630008205310e-06  -3.9991118952944759e-07 5.8125509682333649e-09 -5.5576782865665536e-06  -2.4820980399244283e-07 7.4855053255872386e-09 -5.8495688561484963e-06  -1.3749344510118028e-07 5.6305602719292939e-09 -6.0145482994210293e-06  -5.9369997948835254e-08 2.5352186379510699e-09 -6.0972992078989529e-06  -1.7669844390607491e-07 -8.6004441809881508e-07 5.6789360277085713e-06  -1.8022063969170748e-07 6.4496045354067762e-07 -5.7922876470206585e-06  -1.1101366792774585e-06 -1.8927543479168867e-06 1.2084414575240359e-06  -5.0596543078906409e-07 -1.3295492489200498e-06 -4.8130801364436501e-06  -8.7661722818250799e-07 1.6638809765288256e-06 -3.2887940131446490e-06  -8.7013068247193516e-07 1.6508065528878013e-06 3.3377181621400385e-06  -2.1570052963606030e-07 8.1569835856084651e-07 5.6577344326833561e-06  -4.7730339823526311e-08 -5.6665226396208973e-07 -5.9303209072920641e-06  -5.0879019381607549e-07 -1.2085532719166444e-06 4.8967996694736268e-06  -1.7801900023663991e-07 -2.1542565056438487e-06 4.8185097315442724e-06  -4.4136852418585251e-07 -2.8724575000493079e-06 3.5971305830358548e-06  -8.4200682887643107e-08 -3.9335866462690176e-06 3.2925830051526672e-06  -2.8960236866524058e-07 -4.3954123835574637e-06 1.7204332497626160e-06  2.2928369215879582e-08 -5.3379507814511311e-06 1.3862343469500138e-06  -1.3699746359718213e-07 -5.0915067333091179e-06 -3.6645600778871069e-07  6.9974194057026312e-08 -5.7404837126237158e-06 -6.2530321858828513e-07  -2.4518817184780794e-08 -4.7020309491310576e-06 -2.4008750306069372e-06  4.0436010435275596e-08 -5.0135027932207789e-06 -2.4560670569485592e-06  -1.0536213598875315e-08 -3.3973712195783492e-06 -4.0147700334345128e-06  -1.8205163258213014e-11 -3.5706768454349003e-06 -3.9531488763004826e-06  -3.6684014207989988e-07 -4.0144369336501758e-06 -2.1488954479116302e-06  -5.0647378655777398e-07 1.2126281036196317e-06 -4.8941680606379626e-06  -4.1590940901036180e-07 2.8382949222160845e-06 -3.6996769324989046e-06  -6.8873611626389524e-07 3.3130486789814389e-06 -1.7796160642967770e-06  -1.2618439834527552e-08 -1.9481795491794249e-06 -5.1313810004259519e-06  -1.3179391258462084e-07 -1.9507678780316271e-06 -5.0309673371335214e-06  -1.8536051217064574e-07 1.9698364077132761e-06 -4.9495755756455509e-06  -7.4986280857544908e-08 3.7209851292419043e-06 -3.5634901970750465e-06  -1.1172977136163890e-06 -1.8457945909546159e-06 -1.2114763033899959e-06  -6.7372233661880366e-07 -3.7151287807260661e-06 -1.3736932653940168e-07  -8.8303795804369854e-07 -1.6697240831205826e-06 3.2560715628654157e-06  -5.2422673692574098e-08 5.7974330549103718e-07 5.9293174932413451e-06  -4.9900186282369527e-07 1.1610413998371865e-06 4.9480140848661841e-06  -4.1015899733298604e-07 2.7937937682439223e-06 3.7631764243334441e-06  3.7178731923708522e-08 -4.7460790937134944e-06 2.7642226504979918e-06  -3.6467536394138245e-08 -5.1202403473753470e-06 -2.3243110205461644e-06  -4.5004035436848155e-08 -1.7050540285542377e-06 5.2771076381479578e-06  -6.7398759251429661e-07 3.3358674713731853e-06 1.8332325962061775e-06  -1.9374750301153544e-07 4.4546902770213301e-06 2.0814017008486998e-06  -7.7053400902246463e-08 3.4805601580117131e-06 3.8021012476769262e-06  4.1617200076081471e-08 5.0739877232183605e-06 2.1294664960436422e-06  1.6418577059246421e-08 3.9724896212827633e-06 3.5862487331521760e-06  1.4942148320763142e-08 5.4293319217207851e-06 1.8884373144890097e-06  -2.4280555663401453e-08 4.2500945432641205e-06 3.3273727718734067e-06  -6.3767523610433070e-08 5.5408198970143937e-06 1.4479882462340294e-06  3.4057611828007943e-08 4.5109078793320418e-06 2.6667721700896954e-06  -1.8600483503350596e-08 5.9902504090660322e-06 -1.2887350143604066e-07  8.1430081204642811e-09 -3.6969269577681255e-06 -3.7411688237841648e-06  -4.1123692130742398e-09 -5.0431296013304413e-06 -1.9288778667742392e-06  5.1264224993522491e-08 5.2592040634048491e-06 7.4128954298283167e-07  3.5806274500486750e-07 4.1238280100883828e-06 1.9516800687162748e-06  4.3131423677049746e-07 4.3649063707491248e-06 -1.7802314400055904e-07  8.5453755401654573e-07 2.9501914761088562e-06 1.2868168316033965e-06  8.9927695570445132e-07 2.8212608662326420e-06 -1.2073087403458724e-06  6.4444619209906514e-07 2.3714273037028268e-06 3.4970428496317138e-06  4.2253131479151832e-07 3.7241400266654331e-06 -2.4528264691840177e-06  1.1033879316652820e-06 1.1997947901844627e-06 2.3634529782964016e-06  7.7266433341873543e-07 2.0057660969900208e-06 -3.4168728227171486e-06  7.6160765585418293e-07 6.0369704769871644e-07 4.4378449989167548e-06  9.9754958471998993e-07 -8.0477726821993266e-07 3.3220469436411271e-06  3.3094534154006876e-07 2.4483337964889524e-06 -4.3043296851167919e-06  3.7578904834258464e-08 -1.0366787818876704e-06 -5.6879717598350645e-06  2.2583427875285330e-07 -3.6573390363409772e-06 -3.2427990181161860e-06  5.9196530271638693e-07 -8.0599899694634253e-07 4.8961798907948357e-06  6.1996044709938352e-07 -2.3524392576526356e-06 3.6103477871029249e-06  1.1811780618909039e-06 7.8362169264283852e-07 -2.0595967639511900e-06  4.9640148115241189e-08 2.7836041194117471e-06 4.4912985488362450e-06  5.2574456287506336e-07 9.5295778687332633e-07 -4.9986391499259590e-06  -1.9370013386714002e-08 2.6049987121340354e-06 -4.6756319755857447e-06  1.0059177092789461e-06 -2.3532144515862440e-06 1.3672402833500829e-06  3.9045543319961075e-07 2.4995995454612395e-07 5.5553948923305020e-06  2.0634849656184359e-07 1.3252698475171568e-06 -5.3837629211675225e-06  2.8423777773136223e-07 -1.8548711988134726e-06 4.8799859431744221e-06  2.0881954994222430e-07 -3.5800645904033803e-06 3.3885388833577041e-06  8.8398840376740798e-08 4.0028688711803626e-06 -3.1949393264003593e-06  -7.2042542087024110e-08 -5.8490600075489416e-06 -4.4945429830823097e-07  2.7264363576296036e-07 1.9832465038815655e-07 -5.7987375526318170e-06  5.8337769552896591e-07 -4.0123491385378203e-07 -5.0683200739372154e-06  5.0657797553319205e-08 -2.7513130120659500e-06 4.5057804494125506e-06  -2.1795077550998521e-08 -4.5356833754526688e-06 2.8722709090306146e-06  9.1669513453105247e-08 -1.1985802121781569e-06 5.5530592918363816e-06  -1.4853483751617198e-08 5.4186334907878188e-06 2.0457560448725436e-07  2.8049139550144649e-07 -4.5522400963193661e-06 -1.3346145988316135e-06  6.7307288384377098e-07 -3.0642971195342523e-06 -2.4122197715953644e-06  2.9312294033055791e-08 4.4097435936626893e-06 -3.1537102027732135e-06  -2.7482838515030132e-09 3.3830582362568259e-06 -4.1150241532408227e-06  4.1364728169749579e-09 1.8715373103827856e-06 -5.1900100211467384e-06  1.0643120985541221e-07 5.9875331007376050e-07 -5.8891529954803237e-06  1.5917199052662233e-07 -2.1702276299321743e-06 -4.8354660776044632e-06  -2.7901461937638246e-08 2.5233585711893919e-06 4.7276133626446957e-06  9.5809970528163721e-08 -4.9244811166153929e-06 1.5925274568643923e-06  1.2250752416142122e-08 1.4140187920190840e-06 5.4648466224141243e-06  5.3876403421390327e-08 4.4817959527435804e-07 5.9866486761327330e-06  -3.0367804675634177e-08 5.1403880541960068e-06 -2.3227400324031307e-06  8.2791498454411335e-08 -3.1981100046341165e-07 -6.0266192420466005e-06  -1.0267241544544215e-08 -3.7499866126652493e-06 3.8013550925125620e-06  2.3553725144165869e-07 -7.3572722454690776e-07 -5.6628009480264434e-06  5.0143602705212133e-07 -1.9895130119546375e-06 -4.3176463532712071e-06  9.3096273537443058e-07 -1.1540359398247845e-06 -3.4682185423927910e-06  1.1400058998104534e-06 -1.7544532327150132e-06 -1.1459643336823467e-06  1.3006119206089078e-06 -2.3373703961114897e-07 7.1839163563086402e-07  1.3999131328024461e-07 1.3952688406427805e-06 5.3965225494200151e-06  2.9927993901967817e-07 2.1168548508784248e-06 4.6503131795364419e-06  -2.5410824773247893e-08 -5.2106221121738318e-06 2.2342238935237487e-06  -1.7947320458016648e-09 2.9647210196994234e-06 4.4314470426803045e-06  3.0497814027331867e-08 5.1641958855178419e-06 -1.8472024851643281e-06  -8.6840790531340971e-07 -1.5734509740367982e-06 -3.3985441782837350e-06  -1.8630556305359153e-08 -5.7134598401095519e-07 5.9340114671701253e-06  5.0994555502063045e-08 -5.7846119623517360e-06 1.0632210766780404e-06  4.9302766993332054e-08 2.5042787255331697e-06 -4.7198193968957964e-06  -1.1255752027768890e-06 1.7696905432243463e-06 1.2354682143467969e-06  -2.1783978017015510e-07 4.4791941937885180e-06 -1.9084368956805583e-06  -4.2255186955426219e-07 4.3857979548820650e-06 8.7999715267622342e-08  4.8660624942968662e-07 -3.8173504779602380e-06 1.9367732422736661e-06  -6.9434139378129219e-08 5.7295226242890515e-06 -5.5023171217877889e-07  8.1460211123001519e-08 5.0342589778304277e-06 -1.3359960472805570e-06  4.9275111937139278e-09 -2.0046638909335571e-06 5.0979780877631275e-06  8.8635071073758218e-08 -2.2105210902192363e-07 6.0355535646275955e-06  2.7344177416385479e-07 -5.4750842611157787e-07 5.6844355047521621e-06  6.9861580817646230e-08 5.8746321941989326e-06 3.5488391441791110e-07  1.1572476279796619e-08 -5.9109105548872361e-06 -7.6531747713542901e-07  -1.9369785995924251e-07 -3.1757279426780544e-06 -3.8681201967117028e-06  -1.1302559969769477e-06 1.8021141226868438e-06 -1.0980872775134949e-06  -2.1204136559526923e-07 -7.9252917008752886e-07 -5.6638476967143521e-06  6.9156228893544420e-07 -3.6711215687838792e-06 -1.9562033273134094e-07  1.7660634862873818e-08 -2.4357251913096115e-06 -4.7910726982627153e-06  -2.0598924306402371e-07 1.9053527550866089e-06 4.9707926253722766e-06  9.0268194256311797e-07 4.6006895308892610e-07 -3.9409381562129083e-06  -4.5932858705940248e-09 -3.2068986403264426e-06 4.2081031945935490e-06  -6.2554044104563391e-08 1.4407157454101188e-06 -5.4375905496365382e-06  4.7173266466604160e-08 5.6324168014010759e-06 -1.4486363926569554e-06  2.6384110458630487e-07 3.4219415146215251e-06 3.4148823320904241e-06  -7.0506172180860389e-07 -3.1569161827607777e-06 2.0443140817180576e-06  5.9355728932824386e-09 5.3635599430051585e-07 -5.9709616953060014e-06  -5.5479591550097390e-07 -2.7003852253336426e-06 -3.4281145711564473e-06  1.1775711458227138e-06 1.7121422099201761e-06 1.8685740977960337e-07  2.5240164285397550e-08 -5.4038597657523513e-06 -7.0486980632726261e-08  -6.5509142173834646e-08 -5.6028283997776264e-06 1.1599359416234767e-06  -8.6817144004990237e-07 3.0877560931605532e-06 5.5296176355333740e-08  5.6571214732290502e-08 1.4754819620694227e-06 -5.4205284208346436e-06  -8.4701986372130639e-08 1.3179770289387065e-06 5.4945776113845022e-06  1.4988012899578448e-07 1.8340973096772146e-07 5.9785248400018736e-06  -3.1407669346999292e-08 4.9893615576281209e-06 -2.2297155428258239e-06  -7.5492098394043639e-07 -2.9341739344113636e-06 -2.1621100422949651e-06  -2.5426307282314689e-08 -5.9225191717221843e-06 6.9114730984835995e-07  4.4486832082399024e-07 1.0831409197761612e-06 5.1040440087194471e-06  2.1750317995265094e-07 6.4387861013111637e-07 5.7287918501101287e-06  -8.5140013483095379e-09 3.9193713495601245e-06 -3.5740642420501193e-06  3.0626417574268049e-07 -4.6647601972284703e-06 4.2291215840857705e-07  -1.6357725408918874e-07 2.9261400039204473e-07 -5.9421854671090533e-06  -7.6966639726298093e-08 2.4583218437688509e-07 -6.0473177158189001e-06  -2.5662083811273276e-08 -2.4583002750409495e-07 -6.0751157159049599e-06  -9.0131671675929844e-08 -2.7650786126228746e-07 -6.0208395252013695e-06  -6.8364590436595667e-08 5.6320198487070695e-07 -5.9417800182541748e-06  3.0081023760337734e-09 2.4373168583861296e-07 -6.0834889220138495e-06  3.9656909952162140e-08 -1.4388054057725622e-07 -6.1085812690397707e-06  1.1796639824631538e-08 -4.1320088963534874e-07 -6.0184936417427735e-06  4.3590596358004748e-08 1.0078288982307133e-07 -6.1024726069468435e-06  -2.9813580370434424e-08 2.5598883662205408e-07 6.0735663028070366e-06  -9.3376691427379321e-08 2.9082311629344036e-07 6.0178352065895970e-06  -7.1090913474665445e-08 -2.7625442922452284e-07 6.0357204897164465e-06  -1.2102248719573050e-08 -2.5147616496531510e-07 6.0708425279370795e-06  2.6361798828935360e-08 2.0402491329263268e-07 6.0950217261856005e-06  -3.0638648871861021e-10 4.8749043936639970e-07 5.9893563591427356e-06  3.9869034605778193e-08 -9.2834742686050260e-08 6.0996631795354804e-06  7.5098941048029270e-08 1.1148607502373232e-07 6.0757326562758625e-06  2.7763561618076446e-08 -3.7345937850289826e-07 6.0226772378154711e-06  -2.9048450733322507e-07 -4.6754304469566053e-07 5.7002769635200315e-06  -1.6682300906379420e-07 -3.6667507183973106e-07 5.9123401954180399e-06  -1.8263488830730573e-07 3.5108809630418206e-07 5.8985082976580619e-06  -3.1279428424263339e-07 4.4174986994404410e-07 5.6699516811525958e-06  -8.1090462599339340e-08 -6.8369230851035065e-07 5.8523474008797088e-06  -1.1811170865600485e-07 6.8102890803014068e-07 5.8328609003705546e-06  -6.6853505004152973e-07 -6.5878784389531509e-07 4.7333838384466958e-06  -4.7784989256927775e-07 -5.3791159297850049e-07 5.3121251385514835e-06  -4.7032767422668765e-07 5.2864222099232880e-07 5.3259070235922436e-06  -6.6169694547468297e-07 6.4107294538756014e-07 4.7631023797400743e-06  -3.1881386981571066e-07 -1.0432842410245069e-06 5.3827252773164560e-06  -3.4155374577545778e-07 9.9072206822444139e-07 5.3721643463397882e-06  -8.6983983381506401e-07 7.8041220439526389e-07 3.9610218635422951e-06  -1.0523556801194738e-06 8.8036381257461454e-07 2.9733175098164342e-06  -1.0591005348865227e-06 -8.8878154263245560e-07 2.9296559661147317e-06  -8.7732946335481521e-07 -7.8725735521106172e-07 3.9248219148660410e-06  -6.8590442176762246e-07 1.4323798421352743e-06 4.2507294672994008e-06  -7.0041441145662675e-07 -1.4692626661022603e-06 4.1839694580002355e-06  -1.2598147351099249e-06 -9.8112272728073190e-07 6.2021714390181103e-07  -1.1853144200159722e-06 -9.4449592391439181e-07 1.8880842160924557e-06  -1.1892234556474974e-06 8.7634950770145656e-07 1.8990320583801577e-06  -1.2648599627681388e-06 9.1544952588588935e-07 6.3232505649373552e-07  -1.0146407882039392e-06 -1.8278426542232843e-06 2.2867629885761877e-06  -1.0182190807916751e-06 1.7585552743388248e-06 2.3475166131758893e-06  -1.1842764519777245e-06 -9.2048885983544241e-07 -1.8894249752470409e-06  -1.2617311017701893e-06 -9.5542267764675369e-07 -6.2181761823117274e-07  -1.2649134988427978e-06 9.2817423890774181e-07 -5.6265710379775528e-07  -1.1926360051257675e-06 8.9238108969318088e-07 -1.8334960178316413e-06  -1.1444141844175902e-06 -1.9224664155241690e-06 -1.6015801770398054e-10  -1.1568290028936497e-06 1.8360236739403703e-06 6.9716767654558650e-08  -1.0538805233725390e-06 8.8311745134387224e-07 -2.9474341567067365e-06  -8.7155700118721041e-07 7.8789049435699743e-07 -3.9407153871788868e-06  -8.6324037717340827e-07 -7.4028770265709883e-07 -3.9865505447627373e-06  -1.0509385132795097e-06 -8.4335141258453879e-07 -3.0025590394542422e-06  -1.0249048254455088e-06 1.7830681916303586e-06 -2.2553015761031060e-06  -1.0155455982621000e-06 -1.7599343706163817e-06 -2.3676977025619171e-06  -4.7716779845036978e-07 -5.9266878079914043e-07 -5.2800426331373127e-06  -6.7036401112293494e-07 -7.1695998150036075e-07 -4.7002871718692979e-06  -6.6602405105889733e-07 6.6327131939060533e-07 -4.7373105061360938e-06  -4.7090133743657205e-07 5.4668180251208059e-07 -5.3041900912190932e-06  -6.8520291909493336e-07 -1.4898418398525354e-06 -4.1904853406641752e-06  -6.9339601291834808e-07 1.4694010593220548e-06 -4.1978004040595507e-06  -2.8682466306582902e-07 3.7168977044591682e-07 -5.7419986770583000e-06  -1.7832259470428350e-07 -3.3429182814661582e-07 -5.9024521346594889e-06  -3.0967618287976100e-07 -4.2386130897985170e-07 -5.6729996355592613e-06  -3.2389333875924456e-07 9.1034371072776303e-07 -5.4564408704542852e-06  -3.4240994716737098e-07 -1.0536474196754682e-06 -5.3239516888127521e-06  -1.1404855178045504e-07 -6.5864689782889692e-07 -5.8371693123629158e-06  -3.3284951043477088e-07 -1.7057523181007566e-06 4.9208475760903108e-06  -1.8558100516774507e-07 -1.4404809786110642e-06 5.3196818398921781e-06  -9.5497616791048168e-08 -1.9226198243001838e-06 5.0921225610271346e-06  -9.9723691225721262e-08 -1.2468472385440585e-06 5.5234602268641829e-06  -3.5970800461560132e-08 -1.0455521223909976e-06 5.6745518240466575e-06  -3.3449934245452771e-07 1.6212044552068554e-06 -4.9816357087532463e-06  -1.9351202219509513e-07 1.2259639087437328e-06 -5.4525322918864914e-06  -1.1325532446963565e-07 1.6926610321929893e-06 -5.2315152323720059e-06  -1.1883588546420741e-07 1.0113745230830242e-06 -5.6635003797871061e-06  -3.1054519578117997e-08 8.9897819236477376e-07 -5.7712771613934381e-06  -9.2271515615020467e-07 -2.8492025799320284e-06 -6.7656256499793097e-07  -9.2194106118108081e-07 -2.8819392930965796e-06 5.3557766998855119e-07  -7.0633965948602898e-07 -3.5259757117896095e-06 9.7264181515546991e-07  -9.2174949854615804e-07 -2.5835042484721977e-06 1.6547000177231696e-06  -8.1550586611927872e-07 -2.4253995784078083e-06 2.6802667712602126e-06  -1.6522327441848521e-07 -2.5591256393747656e-06 -4.5156512346730242e-06  -3.6050205478804099e-07 -2.2380103414133920e-06 -4.4241824934853650e-06  -2.9273732083001873e-07 -1.6824920382500508e-06 -5.0009559845048143e-06  -1.7755042808305355e-07 -1.3190166593196067e-06 -5.4013365812176162e-06  -5.4668848076151473e-07 -1.9985316865264517e-06 -4.1931206002077153e-06  -7.2033129690157957e-07 -2.1672083170820213e-06 -3.4400359004846937e-06  -3.5526392292053805e-07 -2.9852702100781021e-06 -3.6893136380760340e-06  -6.4824177680585245e-07 2.3195535103122400e-06 -3.5516856921427200e-06  -4.8114298859132261e-07 1.9931900943335452e-06 -4.3680021462340414e-06  -8.1105248724750511e-07 2.5080044839952648e-06 -2.5743120399176291e-06  -5.5145468988434294e-07 3.1619765078674723e-06 -2.8143187041049249e-06  -9.2896783638916307e-07 2.6215824317580698e-06 -1.4647902071717136e-06  -4.7445749553972632e-07 1.9413834446725241e-06 4.4278584968878064e-06  -6.4100792154322957e-07 2.2904578403630822e-06 3.6089812581612646e-06  -5.4238652063937573e-07 3.1468054305048618e-06 2.8759817013371090e-06  -8.0154267421072007e-07 2.5140382865076867e-06 2.6279600264574221e-06  -9.2206098819011810e-07 2.6221859924632958e-06 1.5625577361107757e-06  -7.1662564627481575e-08 9.0585947332080148e-07 5.7503776828699183e-06  -1.4372365609229538e-07 1.0595238779862147e-06 5.6022803349150282e-06  -2.1715704312893836e-07 1.3111933785411022e-06 5.3657099918733474e-06  -3.4410445833632030e-07 1.5583711394886018e-06 5.0090443839160716e-06  -1.3726928010964695e-07 1.5971917448277681e-06 5.2718291839103332e-06  -5.4585517024319300e-08 -1.9344211537653112e-06 -5.1165048432519143e-06  -9.1418331789358833e-08 -1.1289189228045449e-06 -5.5965532113898788e-06  -3.1935616524883645e-08 -1.1393067968166299e-06 -5.6237200214255287e-06  -1.4271320144897145e-09 -7.6317337070572045e-07 -5.8471881002236016e-06  5.5110353409673442e-09 -1.432885