<?xml version="1.0"?>
<VTKFile type="UnstructuredGrid"  version="0.1"  >
<UnstructuredGrid>
<Piece  NumberOfPoints="201" NumberOfCells="657">
<Points>
<DataArray  type="Float64"  NumberOfComponents="3"  format="ascii">-8.348011146774295e-05 0.0003133578076552688 5499.872870187764  -0.000407221998080524 0.0005715351824881638 -5499.87310325304  309.0139944485506 0.0006928694067040929 -5230.68609430108  587.7773229602498 0.0008247870198969714 -4449.477761169121  809.0016799475458 9.766881248024153e-05 -3232.726422286659  951.0339175280716 -6.832864592906637e-05 -1699.541075622559  999.9747868154276 -0.0001475631688062505 -0.0001260700604694331  951.0340457101986 -0.0001330124695701908 1699.541090240417  809.0017995426127 0.0003677840867340533 3232.726055159324  587.7777234883229 0.0004339760675490947 4449.477880084906  309.0144336879998 0.0004614707129067338 5230.68606841495  391.4931890512385 -753.6314773614243 -4781.595572489995  388.9428394847483 585.397933061157 4900.415381034541  951.8275272417933 -670.8930352186267 -815.3048172479865  685.3127735711017 -732.0763423305489 3667.163113301524  865.7401043634326 678.5533551826389 2312.56297479393  862.1406387140419 678.545213218278 -2352.898192166926  437.1485838538757 674.5587833651925 -4718.665258598702  150.6315796479906 -674.5533850686736 5230.687610619553  680.871350629351 -674.5656495580553 -3744.744975601145  473.9448923939941 -1323.521735611253 -3869.948629405775  704.1898350736574 -1297.268054346786 -2665.367651960308  482.8588265400007 -1854.424149842843 -2560.048099321783  680.3443679905134 -1740.372170961916 -1260.734470106806  426.902513815539 -2207.816647128855 -1070.898314339764  607.8542676621564 -1981.389846840179 270.8954770648454  319.2885218415622 -2358.814701274867 488.7459507900325  463.1210850709455 -2049.271306241197 1854.151259127448  166.8301160062441 -2296.355047413729 1971.668787249979  296.3766245901884 -1873.107637578395 3257.634273290408  -11.51616005562056 -2012.030478905786 3263.915495986843  710.2242198301047 -1609.866921825632 1564.732330541297  680.8715704433978 674.5659269435341 3744.745035537241  689.8864928615676 1305.826387157215 2756.728257743597  835.4705897774775 1251.309512796625 1247.717441171071  110.8657749501114 -1494.986246796288 4365.829387455072  405.98019340396 -1310.974712758358 4116.485348036606  473.8946972549913 1248.038928734285 3989.650586586779  456.64045501466 1825.767055958804 2794.506825127392  953.6497268054883 -654.543485581061 815.2012061594532  840.822401680561 -1352.615729236397 94.40395271627052  867.6571332310424 -679.1586219209489 -2289.85533111186  150.6312691415162 674.5542870501565 -5230.687923334425  674.0942177335027 657.6435278817396 -3796.050404518674  684.6068489935565 1298.798761431267 -2812.052324221977  207.1727718113623 -2227.834529066298 -2220.637563359478  -144.9416291232367 -2323.633607889184 1866.55564875747  202.1918552722618 -1357.490097101812 -4482.600095234893  829.7617118105215 1266.228592717194 -1289.42037781247  620.5044856936182 1829.250749507404 -1552.022945906784  440.5897720696485 1780.286329463351 -3006.412104289575  347.8504691572508 2217.132960793163 -1673.259466853963  153.6761652685183 2081.896814453366 -2925.525150913793  44.98710218614816 2400.308103723288 -1518.383266820937  -157.5375795855137 2142.043245590834 -2700.544516050945  -259.9511515252963 2357.37338514065 -1145.128399052282  -458.1273696714566 2013.292544348028 -2069.860712263191  -49.99851243228548 2496.561533789204 101.4008594824834  -319.3807149194359 -1934.210566032039 3009.641463460261  -441.1579450286159 -2139.00311694322 1489.959952703073  -537.9031894854839 2092.220790311721 -559.3532539949846  -710.5420618303648 1636.586967201112 -1419.494245351581  -756.8679547240048 1632.956548529118 127.026856617418  -887.8278374562226 1077.390197246524 -887.3001321296774  -899.9965392729914 1022.655110373798 827.9028671149104  -788.732496877388 1021.169587985485 -2526.638222882696  -727.8318242314092 1511.06057594855 1781.763750741571  -939.2600421155634 446.627496232561 -1611.339869127865  -831.4224391664326 840.6782779138939 2432.668182337892  -799.5175857761068 286.715095526598 -3242.559991912104  -897.8045960242046 -324.3751338335404 -2314.371054802126  -618.5205749825407 1267.227969993345 3302.2219922617  -138.127120693171 -1035.837951522732 4947.599656727571  -602.4830056420758 -1654.162515489292 2454.958971676634  -718.4498427259675 -439.4108589764926 -3701.371512512892  -776.1955871987327 -1031.34388406228 -2622.272867160296  -960.8181072978458 283.446297751675 1390.610163403215  -334.2963808939206 1667.350045863631 -3662.528519165458  -684.1200410108389 541.1196674539682 3830.674814495783  215.0617286608031 1684.786068648839 3887.489378358012  -925.7650610053141 -844.8729187232809 -932.1406801173861  -582.0824293710385 175.5032078812656 -4455.372494726344  -453.4956858445372 964.2212295669455 4419.06290101644  -559.3449466336083 -1109.477137407709 -3850.642567339187  -585.6870219042206 -1651.953386042421 -2581.825861128428  -493.6006795535422 1860.234721479554 2476.31471845108  -252.033311010724 -2414.055317055194 353.8680017969541  -477.5976309911842 162.3487748294309 4818.829557396334  -705.6944893407003 -234.5501787916161 3862.357541447055  -338.0634268647615 -1656.675909260538 -3675.486297159313  -339.1874498186643 -2112.02275230117 -2276.354693087324  -291.3075119141146 -1049.055243257027 -4728.169539345977  507.0244505011662 2153.776861419178 -155.1529342852353  -681.8547657319689 -1774.2806638722 974.9457413117286  -821.0059617622393 -1198.274969095738 1705.942396296404  179.0841805903156 2169.170022146977 2551.00483853315  -64.64551299239483 1956.355413878336 3405.871081979057  -22.39474326205562 1474.124125341176 4440.366638383652  -270.8904559925542 622.8127028922671 5113.861316096995  -451.7628696893419 -1352.767688452863 3901.133596481493  235.7942067432375 1647.109721593149 -3929.037675638438  -560.5008023012755 -1997.292145993044 -1200.282568780537  -74.05118559219399 1263.56732042089 -4728.194063881389  -164.0905169468282 541.7711845347397 -5292.787939144228  -111.2718977097176 2335.256006532864 1866.261499334096  -211.2767136171888 -383.4612806090887 5309.11414685641  -72.26237328486368 -2048.634857528092 -3127.287836969424  -456.5041935367819 -616.2454456139021 4701.790379918204  -703.7618696055559 -992.0993954169846 3240.878190431415  -876.1406346858531 -476.8577439687681 2434.671586998513  -958.6234383015278 -619.057821284008 771.698502702534  -995.6740484476711 -80.52111719515702 -477.7488462205562  -384.0677668851794 1073.575297981325 -4495.406971017092  -582.5102555034581 1187.513046557674 -3627.653813015155  -85.04044777750697 -2353.011286979051 -1798.854891890885  -34.01757845525449 1847.130524820182 -3701.58886864398  398.7638916784246 2197.886432636743 1435.702314784021  861.8524777482837 -649.1532482677704 2395.833303868209  49.96576867860517 -707.917878253463 -5267.608102227798  158.0692774519161 -2438.492730589317 -846.7095881508295  -304.5087076828387 1596.881374919728 3886.239915936747  955.8955688594855 629.0173918764154 -832.6873105025403  638.9043598633406 1812.636327952175 1414.441594373569  753.703401097554 1642.847135982326 -62.85461656192324  -763.4746222796473 -1485.791790566908 -1390.427784217503  -331.3234269376093 2350.867079616452 427.9715769655163  -555.8588335449647 2027.373947406623 1005.764496522084  -54.23489116646228 -1528.379387167151 -4342.198593153906  -233.0230506752146 -278.9616247041239 -5313.138922520197  -491.2506293711257 -447.7146896345747 -4688.12017568191  231.023741502982 2429.130178448301 -280.8530167496829  27.07235960193705 -2483.719994318504 610.9100219656539  552.1882453992887 -1579.547802602839 2991.832597326318  957.5864074463459 637.0648953288569 739.0493961696716  437.394955266467 -669.7021074521394 4721.321517581894  -845.782567553128 -1332.405793065777 135.7881483467437  -178.9932627546885 -1649.384125124472 4014.18631026089  487.2203055116776 1209.945683049655 -3997.876310740634  -856.7707098208188 199.2655748148269 2802.012200818946  224.4894612212936 -1861.586305932523 -3457.307751198188  244.9419184723607 1200.464525612657 4632.425262184662  142.4602359098248 2418.233077814871 1155.385500372658  -621.9338664428201 1567.208258723191 -2581.074942820594  836.2853561085492 -1205.023730104781 -1437.275370694522  -15.30246275062855 650.2005183669394 5309.944134867508  757.4670715211466 -1172.784387040789 2497.309971253693  -970.8991690148458 595.817104918227 -125.0930130462391  -516.8880190718628 -2140.09868558536 53.03801582582202  -315.6623648734322 -2335.856234710807 -911.085211556394  897.1007294645592 1104.401014040464 -38.2655450965737  -223.2009724737718 1231.618040779118 4626.073042279058  277.7442614397742 1118.460301880983 -4675.576991783215  -337.1335622589667 183.6470410845427 -5162.097803048874  -365.6121402996224 2187.344136479381 1746.82842820451  850.5287051122972 -1120.758152093187 1512.406118218787  -68.115084208002 -2481.652321719631 -552.026086217815  -641.3123229517977 649.8989072221915 -3970.31974297121  -438.2959465933733 552.3079891705554 -4791.793351078602  -279.6334414587502 2011.230356555631 2882.289249449334  -703.1541183754921 -1772.159331738185 -307.6086990080945  1.143059005645599e-05 5.653788166374528e-05 -0.0001613027407713036  -318.8659503480895 -978.1858658405907 152.3451895724722  482.1625872926703 381.4728359323206 -25.14226585964683  -192.0825481812427 1028.171214856058 1211.636704947944  359.3939691512188 -728.857689052548 1102.310601873873  -234.1418028218199 106.6861656841396 -2448.922120400563  -495.9087393699264 194.1541762600172 2.025781954241196  94.7442753988903 1162.997661291186 -1052.10670189578  334.9408444642721 -573.1085830264535 -1647.647497596371  -260.53479207767 -108.8941275510956 2375.216617040291  249.8351270223655 865.3558907098326 1915.173477219447  -92.25687052552679 -987.5336167678895 -2080.385885241631  82.52102455698243 -1426.266297559128 10.17325083351702  198
[...]
<PointData  Vectors="Self-Gravity"> 
<DataArray  type="Float64"  Name="Self-Gravity"  NumberOfComponents="3" format="ascii">-2.8764596496535001e-05 -3.0888814554851414e-06 -4.8000398992361517e-05  -2.2566825242079825e-05 -1.6481176162881139e-06 5.2643057845652914e-05  -7.8631652877047617e-05 4.8030216188508292e-07 4.9681808087894804e-05  -1.7326665288677507e-04 4.1293372702486062e-06 4.6551560644805472e-05  -1.6712707972350743e-04 -1.2043112792419238e-06 2.1652441565474529e-05  -2.8058281583020724e-04 8.3024806250977392e-06 1.7396350322988342e-05  -3.0393585696915983e-04 -1.3736500837472014e-06 2.8182613831377822e-06  -3.0007368224767164e-04 -9.1777018789700582e-06 -1.4845010468733037e-05  -1.8749949081841067e-04 1.9687484288870843e-06 -2.4942697592563954e-05  -1.6464722459875664e-04 4.6808366027098096e-07 -4.2068263017231744e-05  -7.7728736030633142e-05 9.4980421041004621e-06 -4.1467756503308112e-05  -1.0486134004735461e-04 3.5035721763729891e-05 4.4758236353712305e-05  -1.1379060853274212e-04 -3.1337949475100581e-05 -5.0463127977278610e-05  -2.5661867284630093e-04 2.9667489038683619e-05 5.7203687073049348e-06  -1.7926769142572089e-04 3.3638004401350702e-05 -3.7945521969631990e-05  -2.2848185395028873e-04 -3.0131047277586421e-05 -2.4031998737205071e-05  -2.3459119658928327e-04 -3.3642278157817899e-05 2.5459073423678163e-05  -1.1961450122835941e-04 -3.0640583133429095e-05 4.8122987357283096e-05  -4.2793480756759430e-05 3.1692387026301951e-05 -4.7733476035444440e-05  -1.8866387872492569e-04 3.6624251992709726e-05 3.7408900185357650e-05  -1.3593514340037348e-04 6.5569792602317799e-05 3.8721396750092805e-05  -2.0703061158714486e-04 7.1001853082498651e-05 2.5936377940511861e-05  -1.4241185229912952e-04 9.4107381833833932e-05 2.2196665658717670e-05  -1.7587947994770768e-04 7.7558915275798300e-05 8.8295349825720106e-06  -1.1356141490996881e-04 1.0026695260890339e-04 1.0388812124700471e-05  -1.6237765219327083e-04 9.2703674450621515e-05 -5.1216852123530549e-06  -1.0319369585623709e-04 1.1182420255000843e-04 -5.5308243659833924e-06  -1.2335609930337176e-04 9.8084629271107313e-05 -1.8560480575600045e-05  -3.9841057921662367e-05 9.9822645629382822e-05 -1.8039592965543432e-05  -5.9275116000047042e-05 6.5557437128359805e-05 -2.0357028720098651e-05  7.5435924397468216e-06 9.6388999725873021e-05 -2.9967970825783479e-05  -2.0891926426796722e-04 8.9168211408371438e-05 -1.6792244810719756e-05  -1.8899770621086392e-04 -3.4438079647402671e-05 -3.3569198495919595e-05  -1.7417652808273992e-04 -5.7541113776724028e-05 -2.3064415496747964e-05  -2.3110952576169014e-04 -5.4168177010187317e-05 -1.5375412776537120e-05  -2.5528773947472428e-05 7.2987325631464119e-05 -4.5620862417199293e-05  -1.0889503718223194e-04 6.1402986116640526e-05 -4.1134116311441852e-05  -1.4993078859402103e-04 -6.4307414370908320e-05 -3.8366033055499017e-05  -1.4377462058327584e-04 -8.9212964733229228e-05 -2.3418699801398783e-05  -2.4846735925285868e-04 1.9708006384880887e-05 -7.5792724261980924e-06  -2.3464733261443647e-04 6.6016669296446511e-05 -2.3110194293257164e-06  -2.4325439387353867e-04 2.7847549857841479e-05 2.3848355688729652e-05  -3.7352383237044344e-05 -3.9933164857278774e-05 5.6925557912571232e-05  -1.8035074683231251e-04 -2.9182475254057645e-05 3.5202550441240398e-05  -1.7668881979276648e-04 -5.6421558209878258e-05 2.4094517921523228e-05  -5.3025383597217150e-05 8.1122551216725259e-05 1.8589306201997203e-05  2.6170806702698953e-05 1.0632490630262085e-04 -1.8319151767651234e-05  -5.6039504003773595e-05 6.3366883210084403e-05 4.2248423098500956e-05  -2.5991388523903520e-04 -6.1857456556639392e-05 1.5285348197888173e-05  -1.7206333789916657e-04 -7.3588016403572728e-05 1.2858557032633310e-05  -1.1678830562972982e-04 -8.4759750038820392e-05 2.7934966461248688e-05  -1.2805700601988440e-04 -1.0524752504886497e-04 1.6740887641208290e-05  -3.9253505016472473e-05 -9.6816829989265931e-05 2.9546062070082762e-05  -1.5871098507157449e-05 -1.1579460324259400e-04 1.6612988121570558e-05  4.5126235352639485e-05 -1.0113895889901703e-04 2.2974705800906930e-05  6.0890528028988238e-05 -9.2221574886454816e-05 7.7496416107242753e-06  1.2830169099690972e-04 -9.9818616785273272e-05 2.1829128767305321e-05  1.1901773605074026e-05 -1.1000925509873236e-04 -1.7524228347052873e-06  8.4011824249079437e-05 8.6595579895309852e-05 -2.5050788219928477e-05  9.5844353086903898e-05 9.1620293338201271e-05 -1.3518039145438532e-05  1.5375156269544686e-04 -9.7144524218019122e-05 5.4297978564235147e-06  2.1836306639842206e-04 -7.9213423797938436e-05 1.4022822419265643e-05  1.6023609061945353e-04 -5.7016041584387956e-05 -3.2183172412365017e-06  2.6709657835201567e-04 -5.7145050662893439e-05 7.6242200244379444e-06  2.7613288110113021e-04 -5.1853108091877191e-05 -1.0164415215929164e-05  1.8818344259031463e-04 -3.4282228107151523e-05 2.0233686390824184e-05  2.1688073849917313e-04 -5.9972580045165648e-05 -1.6068525146635256e-05  2.7001224715969460e-04 -1.8461822822429066e-05 1.6352110482628277e-05  2.2786074716568634e-04 -3.6285990810313795e-05 -2.3032084503123031e-05  2.2781492334561637e-04 -6.4953962967622253e-06 2.7020028630624390e-05  2.6781979290650698e-04 1.3110817698233261e-05 2.0258485034242064e-05  1.7280336430392599e-04 -6.0423780914715407e-05 -2.9330998248904235e-05  5.2110617341687801e-05 4.5979242448462411e-05 -4.2470029812248710e-05  1.6098091186760564e-04 8.0080406646490724e-05 -2.3701518623248753e-05  2.2848840811579501e-04 2.3750585956758715e-05 3.7041049673713981e-05  2.0947899727969503e-04 4.2858142845200236e-05 2.6161874139633629e-05  2.7776293049772024e-04 -5.8417630049632160e-06 -1.1856085614897128e-05  1.0157079690926247e-04 -8.1710937212197364e-05 3.4906465683144689e-05  1.6834743052888268e-04 -2.5580566607021273e-05 -2.7186056307098239e-05  -7.2637995988474599e-05 -8.1875983098625684e-05 -3.9849369699518487e-05  2.6840491768969580e-04 3.7003564665435623e-05 7.2187551106636235e-06  1.8579633221548270e-04 -2.6488317180261577e-06 4.4071106134672942e-05  1.4409717429068230e-04 -4.2267404882204532e-05 -4.4298372666995220e-05  1.4111799695933538e-04 4.7922480923810954e-05 3.7306446821694802e-05  1.5804129394503928e-04 7.5064575894496599e-05 2.9307162801637865e-05  1.5491326351226329e-04 -8.2661875909846756e-05 -2.0812717672915467e-05  7.7228281469456398e-05 1.0602879297855241e-04 -4.6069179168975814e-06  1.3930467333513359e-04 -7.7159077594456503e-06 -4.3422961355701567e-05  2.2166903279653583e-04 7.8662932728804667e-06 -3.7536704411764556e-05  9.1439705112071368e-05 8.2113596627989978e-05 3.6126327251593594e-05  7.9333577818093903e-05 8.0430122519853855e-05 1.7110529321971505e-05  6.7303669316505515e-05 4.4571934439683424e-05 4.4182747370728792e-05  -1.3736818932742263e-04 -8.9731441673768860e-05 -1.8192493655682773e-06  1.9504747811260986e-04 8.0474673797623981e-05 -1.2147065340674775e-05  1.9267368046550374e-04 3.8934147588294840e-05 -1.4130395441130772e-05  -6.0613535399974034e-05 -9.8696939742168500e-05 -2.5957971441802050e-05  8.7805941975401439e-06 -9.4470115117743024e-05 -3.4259603529763456e-05  1.1009742332194778e-06 -6.3456265067209593e-05 -4.4257846183717673e-05  8.5424653529326441e-05 -3.2945757311727526e-05 -5.6990903808376422e-05  1.4281529054468629e-04 6.5883794298567694e-05 -4.1351466837652707e-05  -7.7265787500842449e-05 -8.0424373472250888e-05 4.1941626101659054e-05  1.8503495326998198e-04 9.7248104811914235e-05 1.5972891606099880e-05  2.5880086809887081e-05 -5.5542850224456328e-05 3.9625461028704180e-05  4.9556207269631943e-05 -3.7427470281644715e-05 5.2634071817609684e-05  3.3359694113315290e-05 -1.1649230803440827e-04 -1.8051846163375215e-05  6.3968334174094139e-05 7.2959207153160193e-06 -5.9275916536129365e-05  2.3493268056648605e-05 9.1937518372612898e-05 2.8772730654928987e-05  1.3687954190851826e-04 2.3325304167860472e-05 -4.5177868321924689e-05  1.7433166264081189e-04 3.2877589742475941e-05 -2.9945102765042636e-05  2.1703132457324118e-04 2.0431749777246520e-05 -1.9687373543982916e-05  2.3021151515081374e-04 2.7324375723477082e-05 -8.2146689445361451e-06  2.9471642731710557e-04 8.6349299100396238e-06 6.4974875243173283e-06  1.1386653782726761e-04 -5.0405465536974424e-05 4.5940478962207641e-05  1.6451612929061469e-04 -6.1825791459762188e-05 3.4003209511512990e-05  1.1334131182076822e-05 1.1593292541661835e-04 2.1328939216378041e-05  2.2863734002662091e-05 -8.2708135381588544e-05 3.6520873168411160e-05  -1.2201064614626124e-04 -1.0994469310221701e-04 -1.4004640216441215e-05  -2.6305433773044190e-04 3.1298922781863506e-05 -2.1492129449900018e-05  -1.3700555302158664e-06 2.9212651515173284e-05 4.5783713917484095e-05  -3.6628145539699096e-05 1.2010184531956145e-04 9.7928549915532681e-06  1.0569267518605318e-04 -7.2690999198692791e-05 -4.0032924494032935e-05  -2.9238825125040918e-04 -2.9322499074700425e-05 9.8586691060499560e-06  -1.7462637599010918e-04 -7.8150680389853239e-05 -1.2783355192417250e-05  -2.3306933069719695e-04 -8.6151213633482997e-05 -4.0309292316575666e-06  2.1513955728595332e-04 6.3882364902037835e-05 1.2344863425258034e-05  1.1352268013436715e-04 -1.1228860152993584e-04 -3.3871790307968889e-06  1.4286444287753218e-04 -7.1195520657344548e-05 -7.8449088942878907e-06  2.4351837756476527e-05 7.5984544804884226e-05 4.4031089204133411e-05  5.0023239188505738e-05 1.4925788056986900e-05 5.2081761275176712e-05  1.0806411099971268e-04 2.3347868973945232e-05 3.6302634565435495e-05  -7.0265747089137914e-05 -1.1875784644289927e-04 4.1518464144335799e-06  -2.8042877241405924e-05 1.2146324254506893e-04 -7.4729353254279382e-06  -1.7591259992966223e-04 7.4224967802929878e-05 -2.9563245447727106e-05  -2.9017855299999555e-04 -3.2347285361469691e-05 -6.4502515283450374e-06  -1.2453305439548786e-04 3.0064255002228116e-05 -4.6188229772671402e-05  2.4621037517416806e-04 5.9141883434227873e-05 -9.4831756072822414e-07  3.8225205446041399e-05 6.5691453310432626e-05 -3.5241227479379941e-05  -1.3210548715448633e-04 -5.7107995546988259e-05 3.7033108759695358e-05  2.5732699321060328e-04 -6.2372863233518965e-06 -2.7377047299781078e-05  -5.7982232881902593e-05 7.0779324836807078e-05 2.5983074237565532e-05  -6.8304224353575081e-05 -5.6894311350346446e-05 -4.8571041598581919e-05  -3.7595642648110544e-05 -9.3881282385705508e-05 -1.0268746170151338e-05  1.6454085246549445e-04 -7.1998275492946216e-05 2.6989700382343649e-05  -2.3993543477494154e-04 5.9100135765613805e-05 8.9113825161433193e-06  -1.4507240896764928e-05 -3.2930074992458320e-05 -5.0657625072674515e-05  -2.2725190050316407e-04 5.2693214352039026e-05 -2.7233011553152120e-05  2.9241111556456287e-04 -3.0178679606954745e-05 1.8322206495973798e-06  1.5296867868169460e-04 1.0881213195695719e-04 -4.4311983296599794e-08  8.4642186124769941e-05 9.9805651758585521e-05 1.0845560531909134e-05  -2.6914370530326079e-04 -5.7938547995128611e-05 -2.4272205516217196e-06  5.3957865844785916e-05 -3.4073012491153901e-05 -3.9024389793747929e-05  -5.8409291343684281e-05 -5.4761938589996726e-05 4.4894113276995403e-05  1.2952185734641802e-04 2.9701220524149311e-06 4.7095811840131872e-05  1.1875150291830971e-04 -1.0233250924328896e-04 -1.4116518490693412e-05  -2.7079675616277889e-04 5.4096505667870381e-05 -1.4986426597079619e-05  2.8463312169940690e-05 1.1507800101336617e-04 1.7369740668661611e-06  1.6137243757535324e-04 -2.5150142422531950e-05 3.4172786112520271e-05  1.3373656047920696e-04 -2.5267684111822882e-05 5.3900323389652184e-05  9.3409381855221379e-05 -9.7841884337062726e-05 -2.6716598762118364e-05  2.3108186171053515e-04 9.7516794659613590e-05 1.2103443369259417e-06  8.3504607577297178e-06 1.4643014216659847e-05 -1.7465653026183847e-06  1.2878046439191544e-04 5.5510556864085180e-05 -3.2549604208479356e-06  -2.0980813758193938e-04 -1.9529157091501993e-05 -1.8056376946301189e-06  9.3398846611995328e-05 -6.3168265944273279e-05 -1.8321980990806341e-05  -1.4380263672176909e-04 4.3554267732814770e-05 -1.4373083770454982e-05  7.3500953701637788e-05 -1.1860215316581296e-05 3.2314048723367954e-05  1.8267448112696088e-04 -1.3034817072485775e-05 -1.9015869878614995e-06  -3.9228329950374400e-05 -7.5220387699192711e-05 1.8347491336822989e-05  -1.3273790949870564e-04 3.7236559968032928e-05 1.8646148133530799e-05  1.0116166299972151e-04 1.2341232725863377e-05 -3.0836902442998721e-05  -1.1182745114689717e-04 -5.9134834256762081e-05 -3.1289546180598983e-05  4.0327726458342357e-05 5.1222259262074264e-05 2.2573769336309345e-05  -3.0236784010142689e-05 7.1630723398458028e-05 1.2579818684489935e-06  -8.3846665963201953e-05 -2.8888207484755148e-05 4.1604139799515826e-05  3.7718349803713394e-05 5.5142611486438099e-05 -2.6157708554615416e-05  -5.9654421765794295e-05 1.9123362640207031e-05 -4.0325066046041179e-05  1.1559689566270136e-04 -5.8129890292439473e-05 1.1842878528414065e-05  1.8418739630892715e-04 3.5260262187557057e-05 1.4123654278622063e-05  -1.7856776204199521e-04 -4.6982824198583940e-07 -2.5925167478578782e-05  2.4867408953000056e-05 -4.5876953568461327e-05 -4.3529314393662684e-05  -4.5878772402829309e-05 -9.5725354244073822e-05 -1.5004668695282752e-05  -1.6363642208168716e-04 -5.9757907807513499e-05 2.4150569184691510e-05  -1.4645181363002953e-04 -7.6253776700853173e-05 -1.3149608607894783e-07  1.9080434060894937e-04 -3.1766852247799527e-05 -2.8107887435270858e-05  -2.4482665525966409e-04 3.0404183314903786e-05 3.1147609765910525e-06  3.8820790156008472e-05 -6.6805982500414476e-05 3.7983759965761564e-05  2.2183937690050930e-04 3.2860428030975932e-05 -1.6690872794509318e-05  -2.1074506264819292e-04 -8.9996111874305335e-06 2.3490083955676179e-05  -1.6928956359735334e-04 7.9659271137410339e-05 4.8798431733272462e-06  2.0549617715281350e-04 -2.6188847538579660e-05 2.3980626212819186e-05  -5.3119297393529864e-05 2.7546902993810138e-05 3.9027552567590890e-05  8.1037979351163863e-05 9.5800839632964471e-05 1.5268098010491619e-05  7.1889045447337194e-05 9.9807350233109321e-05 -1.4464263193042909e-05  -8.6389971683443792e-05 8.7966133272169834e-05 -2.1002534400270868e-05  1.7981342397087801e-04 -7.1335029094035402e-05 -4.2140516143428409e-06  -7.4374904834210030e-05 8.3181047339679447e-05 2.6929446856354998e-05  6.0693829270841032e-05 -9.7530260213906124e-05 3.8161746046389226e-06  1.2367699280161690e-04 3.7302228048142202e-05 3.9064794158779486e-05  -2.2073379356880781e-04 -5.1793281985762503e-05 -1.8143997232145306e-05  -2.9918906505042452e-05 -3.8599869048008904e-05 -1.5119300109139154e-05  -7.4789023044141863e-05 -1.8952314439938880e-05 1.9587021173910150e-05  </DataArray> 
</PointData> 
</Piece>
</UnstructuredGrid>
</VTKFile>