<?xml version="1.0"?>
<VTKFile type="UnstructuredGrid"  version="0.1"  >
<UnstructuredGrid>
<Piece  NumberOfPoints="201" NumberOfCells="657">
<Points>
<DataArray  type="Float64"  NumberOfComponents="3"  format="ascii">-0.06709731518366314 0.3695207947027339 5369.25414372245  -0.4214412376098571 0.5884355654346989 -5369.490267698212  305.8374894053222 0.7206204989356262 -5102.551237639908  579.3507708581668 0.8701017404160618 -4330.746207367842  792.6842454470121 0.09225347009335925 -3137.960493360493  926.8921733034034 -0.08268801716797561 -1645.902847250759  973.0085327574931 -0.1653212033709796 -0.1275630696100587  927.037778772013 -0.1274314426730617 1645.922697052162  792.8234899121683 0.4214486909292576 3137.585120501636  579.7873107324348 0.496193236863224 4330.856123071525  306.3113314439514 0.5232981991331569 5102.524043839837  387.8955027841602 -770.603827305824 -4660.636813747014  385.3082358463448 598.8028182689994 4776.723692205235  929.0136278828153 -709.308897450591 -789.2285528742983  675.0460139436725 -758.3082944531361 3564.160788695606  847.8803775655899 712.1573536714812 2241.797587356271  844.2472107465862 711.7468919966415 -2281.258971336407  432.7512946476541 691.374951692935 -4598.227383053715  149.6080257858803 -685.5455938988421 5104.137856439097  670.269402724508 -698.9394600908793 -3640.084199578102  470.3504717246779 -1367.181478768229 -3766.831571208614  695.1780613419243 -1355.307444919551 -2588.06822402619  481.2971246783981 -1934.259045229451 -2489.169528104743  674.5740689939176 -1829.530329934672 -1223.671238675045  427.4918656846298 -2316.789472430832 -1040.902766637914  605.2254310502524 -2084.894647789035 262.9075616661808  320.8557206586681 -2476.095555235192 475.098643342973  463.0378475736241 -2144.881828506269 1802.247272286027  167.8472656673561 -2398.372322062681 1918.519243049869  296.4609663615828 -1941.494023511783 3171.503870975719  -11.45047191277149 -2084.086271415255 3178.868749320417  702.9296566306108 -1691.123560160263 1518.349789334743  670.5256832789662 699.2583564701648 3640.149020906233  681.651408263134 1363.192401501929 2677.255663873292  821.5233362581764 1318.048719380268 1209.338623890997  110.7464048777419 -1534.533985493307 4255.891834471033  403.4040387272917 -1350.394135445729 4008.767269677789  470.2637148730136 1288.225204843044 3883.850338842658  455.3395351450462 1901.447818279903 2717.792748631448  930.7415110538644 -691.6825016780673 789.1163448068875  826.9627886671346 -1427.743999030445 91.31602527963526  849.4013855958062 -712.755382474659 -2220.00832996941  149.2618299821755 686.5256783778381 -5104.470194881212  663.9019787010128 681.1243255429184 -3690.309529318294  676.441050935596 1355.098289301166 -2731.421925903582  208.0067095964693 -2324.449668779978 -2161.064670730313  -145.7318349637882 -2427.834084322479 1816.23263277164  201.2668020235822 -1391.673343117184 -4369.758167302798  815.9039826692825 1333.502866519011 -1249.96832169149  616.8115972995873 1919.32732937187 -1507.084587150985  439.0747420302968 1850.702765180989 -2924.892750795407  348.8392167991766 2320.319617724202 -1627.090704851229  153.9468668906632 2162.544878149137 -2848.428098340355  45.40825403654195 2510.625371449004 -1477.388913983006  -158.1617559943572 2228.451017459815 -2628.998965237543  -261.4938020072389 2469.933104214483 -1113.677002892313  -457.6909464959532 2104.695429891799 -2012.356709774996  -50.36291190074777 2618.700853080108 98.47112480157048  -319.3393763901786 -2008.851904316941 2929.165131513316  -441.5531629703857 -2241.616821265908 1448.203109459252  -537.0629866669454 2199.013722834501 -543.3566111017204  -703.4497080526263 1720.114625463822 -1377.267675661216  -748.1692692185835 1721.052518429642 123.1854411176363  -870.2678321531369 1136.56426136562 -859.6662620635739  -881.3352673335711 1079.348549635261 801.8679061141016  -775.7263406988477 1069.046099589558 -2451.650291682608  -719.3234674675101 1586.455453319034 1728.814006255525  -916.3319297205055 470.7245084896184 -1560.748125730558  -815.6325148207178 881.1864568663971 2359.22030217031  -784.0607078046395 299.2428107206855 -3147.501345610978  -877.3020978837314 -340.7579989705373 -2243.081597389022  -611.9511795866738 1316.663429790131 3209.887007645132  -137.2953953433407 -1056.353507556567 4825.882146156123  -597.9007204821593 -1728.292716140575 2385.113684718053  -706.3895035998713 -455.6432380642723 -3596.685746263735  -763.6234366635633 -1078.732373416459 -2544.87474494446  -936.3272208555788 299.4105834818156 1346.3445941658  -333.4987624736868 1723.835106023872 -3566.268855089175  -673.4816222835326 560.6764799248002 3723.927376883383  214.6883772910561 1737.91848777334 3787.241449785881  -905.0530446346992 -892.5552280861095 -902.8356848460961  -574.4239735156805 180.9152242691589 -4336.930497924975  -449.1692867941543 991.7884467223383 4304.14761894446  -553.895720117775 -1146.646580699756 -3746.321762764293  -581.6517831333621 -1724.685273049895 -2509.070746508908  -491.9115479906129 1941.671366366502 2407.656332460709  -253.621914200859 -2533.607368981187 344.1077253610798  -472.1259142517236 166.5967049453667 4695.14528200598  -693.6295237360862 -242.00657314908 3753.85913605281  -337.2574710459599 -1712.148740885995 -3578.840384182755  -339.9551782868849 -2204.221641030975 -2214.533859576029  -289.6692133363123 -1072.70479667343 -4609.760461252951  506.976467741216 2263.874400825607 -150.7364951157232  -676.2414656722527 -1866.755207521383 946.080629209437  -807.3605719187075 -1260.119347098523 1654.000048265139  179.7185366691955 2258.923278289179 2482.988983759117  -64.75350779084003 2025.596067323188 3317.347514466225  -22.26594877246456 1512.569201708276 4329.351182935705  -268.5969961870704 635.8308220972849 4988.261064777508  -448.3736170184612 -1396.645215410152 3797.621963526873  235.1700408754142 1698.555741364781 -3827.710365354187  -558.6104705804636 -2097.988941257527 -1165.936337050062  -73.98999289823176 1292.209001801184 -4611.656321074249  -163.259362673075 551.0802170840618 -5165.295582707622  -111.9507239783216 2439.99774675607 1815.899473339578  -209.5572249939915 -390.1207984654491 5180.561716573487  -72.58115653859483 -2124.749343934302 -3045.645755949943  -451.6055007666261 -630.3976261189231 4580.936996315132  -693.47271462994 -1031.855705719611 3148.497728489288  -856.8865305544816 -499.9719528610169 2360.205748379283  -934.9370464959088 -654.5046169593667 747.1092291666308  -968.7256342579 -85.36569394927082 -462.3366149769466  -381.439887008616 1102.202895213933 -4380.249198170407  -576.5655920971827 1230.026380359784 -3528.090946014273  -85.67800712449016 -2459.286637998271 -1750.592781362628  -34.07623288400766 1907.378270442968 -3606.593353731221  399.6702327104361 2302.832455238294 1395.663847037279  844.2561453457533 -680.9877389414936 2322.705192113178  49.39592706483065 -718.7346067459397 -5141.283963185693  159.145240729276 -2556.960870412064 -823.658154267859  -303.5378292909934 1648.117209280521 3784.982453036971  932.7562596281088 664.2880238988422 -806.1257367982477  634.7148488626817 1903.256604369622 1373.167472810966  745.2045697592586 1731.408781610738 -60.89026875927573  -753.7195863511409 -1563.262039592792 -1348.728712844759  -332.9278669299264 2467.442878742913 415.9313142618292  -554.5769142476989 2129.641333441657 976.7887348886596  -54.22686847341082 -1568.754317809949 -4233.118981075732  -231.4090344032812 -283.1293204528939 -5184.583715775715  -485.9520123134893 -458.2663236069102 -4567.021710961645  232.6133595270541 2548.987326991767 -273.2414926861566  27.39696286213221 -2604.660952539543 594.2447184072224  548.4000009153746 -1643.55097209117 2908.844203579334  934.3773008263036 673.1691332636666 715.3679925050765  433.2874759082325 -685.1520465966713 4600.531819268687  -831.480127004284 -1407.100391393295 131.5290117856476  -178.5805332837075 -1698.466188413071 3911.633794405582  483.0702525590524 1248.438547080861 -3891.599325567264  -838.1334487586472 208.8723228828181 2717.466953843264  224.4007563163212 -1926.381560429265 -3367.100147993272  243.7979658791606 1230.118182550334 4516.234804422982  143.5582881890103 2532.879993870375 1123.949486160363  -616.8785895168934 1636.351882598724 -2507.869419613861  821.8664439964272 -1268.808683650082 -1393.409578188552  -15.12126216709347 662.1739881261635 5182.476012942989  746.3799999244759 -1227.223704715294 2423.667199838093  -946.8209482551152 630.0712091683816 -121.0788149685078  -516.6336129863301 -2250.329911914809 51.50869531558443  -317.2860774092876 -2450.433980752532 -886.0352889929861  879.4398729066442 1166.352794840827 -37.08881105413631  -222.0950032553467 1261.982123519062 4510.358394602243  275.9986435608919 1145.296879378602 -4558.428265322649  -334.3175361531601 188.0276123122428 -5034.906070777422  -366.36022126598 2288.846354899216 1698.537738227317  835.1758230947698 -1180.002155272167 1465.780615427422  -68.65929198592076 -2602.914324860171 -537.0337471961258  -632.6166513432249 671.7322962374277 -3861.467459890619  -434.109956324992 565.4682429554896 -4669.850637247989  -279.7803136041902 2090.986116976309 2805.408639752685  -697.1288851170939 -1867.001941258497 -298.5784523888678  0.003729703974166873 0.05912410563279912 -0.1677633957188545  -311.6189123653982 -1038.520061573308 147.5795307332262  468.811431485791 405.2197554093241 -24.48093463164436  -187.9063826712304 1088.511956981401 1173.551643763355  350.6457601781935 -772.7106991478483 1067.245168998543  -228.4603539322548 112.090209490117 -2373.577834741869  -481.7132689805857 206.1404267538169 1.900162907906735  92.81344944426934 1231.124461707799 -1019.399531892882  326.6163606913529 -606.6972373058127 -1595.952185617427  -253.8529941205194 -114.5712696091954 2301.769297411477  244.4920473219507 913.5623412874253 1855.994236104167  -90.42810141910198 -1041.185783392555 -2017.063380124702  81.08317332096919 -1511.23562671526 9.772806855783582  194.2856838276393 397.8831865521665
[...]
<PointData  Vectors="Coriolis"> 
<DataArray  type="Float64"  Name="Coriolis"  NumberOfComponents="3" format="ascii">4.2120178371002379e-12 4.8930421895558827e-13 0.0000000000000000e+00  5.9204386480119160e-12 4.2703907226480238e-12 0.0000000000000000e+00  7.3305261017431624e-12 3.3010980024750130e-11 0.0000000000000000e+00  8.9839365251147804e-12 8.7811527695232498e-11 0.0000000000000000e+00  8.3476713504542802e-13 1.7032817944382134e-10 0.0000000000000000e+00  -9.6522538270750706e-13 2.5244604044228327e-10 0.0000000000000000e+00  -1.8098285942881567e-12 2.8220245233065879e-10 0.0000000000000000e+00  -1.1790212131712973e-12 2.5084466711408172e-10 0.0000000000000000e+00  4.7027387259404170e-12 1.6876787081241456e-10 0.0000000000000000e+00  5.5161720161414153e-12 8.3170805917431059e-11 0.0000000000000000e+00  5.7794833058007073e-12 2.8018757514941551e-11 0.0000000000000000e+00  -1.7876573152318744e-10 3.7859033522332636e-11 0.0000000000000000e+00  1.4121577987790731e-10 3.7879643847455019e-11 0.0000000000000000e+00  -4.1186872596919615e-10 2.3851066113675847e-10 0.0000000000000000e+00  -2.7741022098719283e-10 1.0724601736197908e-10 0.0000000000000000e+00  3.5852918372554814e-10 1.8647299639373515e-10 0.0000000000000000e+00  3.5400575137123885e-10 1.8692569420943451e-10 0.0000000000000000e+00  1.7663949695030967e-10 4.6091467550626164e-11 0.0000000000000000e+00  -1.1504379829729713e-10 1.0564452612913936e-11 0.0000000000000000e+00  -2.5811188673141989e-10 1.1081208826366953e-10 0.0000000000000000e+00  -4.5987207036934509e-10 3.8289569109726000e-11 0.0000000000000000e+00  -6.1530975033928792e-10 9.4534063564785153e-11 0.0000000000000000e+00  -8.4209593289885382e-10 1.7252331679512511e-11 0.0000000000000000e+00  -9.4558195888837865e-10 6.0554527908935884e-11 0.0000000000000000e+00  -1.1501039171046320e-09 -5.5633775401093831e-12 0.0000000000000000e+00  -1.0961774768767095e-09 2.7700004461437678e-11 0.0000000000000000e+00  -1.2366182804979687e-09 -1.5898444215346709e-11 0.0000000000000000e+00  -1.0086419085683083e-09 1.6482741897289662e-12 0.0000000000000000e+00  -1.0733039597772594e-09 -1.0148760960080982e-11 0.0000000000000000e+00  -7.1887248178246038e-10 -7.6555684959417491e-14 0.0000000000000000e+00  -7.5647974317657594e-10 -7.9600517750054912e-13 0.0000000000000000e+00  -8.6216052886160109e-10 7.6473193469663675e-11 0.0000000000000000e+00  2.6165676185271344e-10 1.0793967769155265e-10 0.0000000000000000e+00  6.0786601952926603e-10 8.6373597491199904e-11 0.0000000000000000e+00  7.1163450258334579e-10 1.4556845831409151e-10 0.0000000000000000e+00  -4.1462454607619289e-10 1.3947338111161218e-12 0.0000000000000000e+00  -4.1420773650464298e-10 2.7441195991400537e-11 0.0000000000000000e+00  4.2333403412563820e-10 3.8355589278053406e-11 0.0000000000000000e+00  7.9768459763644441e-10 1.4381646523240163e-11 0.0000000000000000e+00  -3.9802040883523359e-10 2.3950111585985161e-10 0.0000000000000000e+00  -8.0136158641986032e-10 1.4464196283336726e-10 0.0000000000000000e+00  -3.5843282253393284e-10 1.9083518042951895e-10 0.0000000000000000e+00  1.2544419418877796e-10 1.4324895134163124e-11 0.0000000000000000e+00  2.4815531416198794e-10 1.0653361519817573e-10 0.0000000000000000e+00  5.9605546924120509e-10 8.5793880734341673e-11 0.0000000000000000e+00  -1.0167353502551082e-09 -8.0343984717870468e-12 0.0000000000000000e+00  -1.0963582739426003e-09 7.8651376325287423e-12 0.0000000000000000e+00  -3.5880197448939640e-10 1.0120367146552617e-11 0.0000000000000000e+00  7.1707802677848749e-10 1.4471870733538602e-10 0.0000000000000000e+00  9.5338119706719520e-10 3.9058111368552274e-11 0.0000000000000000e+00  7.4164880846532539e-10 1.6729204057886212e-11 0.0000000000000000e+00  1.0871823009541810e-09 -9.6365692154859006e-12 0.0000000000000000e+00  8.4741725945432968e-10 -2.3292402306585754e-12 0.0000000000000000e+00  1.1608229529887500e-09 -4.2292556690460747e-12 0.0000000000000000e+00  9.0813598659258462e-10 6.0970941886135445e-12 0.0000000000000000e+00  1.1857330356202336e-09 1.5572164244386169e-11 0.0000000000000000e+00  9.6398914026544721e-10 -5.2704192774602279e-12 0.0000000000000000e+00  1.2862724746897385e-09 3.7333488155240263e-12 0.0000000000000000e+00  -7.8496914199248777e-10 -1.3874145982860891e-12 0.0000000000000000e+00  -1.0826330259947986e-09 3.4248223254405355e-12 0.0000000000000000e+00  1.1292659628624531e-09 -9.0738463534196306e-12 0.0000000000000000e+00  8.8629415268935269e-10 -7.4172371855792356e-11 0.0000000000000000e+00  9.3698386363937222e-10 -9.0714983094531199e-11 0.0000000000000000e+00  6.3241229926526881e-10 -1.8337630344836597e-10 0.0000000000000000e+00  6.0619041151119706e-10 -1.9490646419068848e-10 0.0000000000000000e+00  5.0882055624210692e-10 -1.3595400083914657e-10 0.0000000000000000e+00  8.0038820172616785e-10 -8.9099549234630465e-11 0.0000000000000000e+00  2.5795481869224905e-10 -2.3961445957472554e-10 0.0000000000000000e+00  4.3167327570476267e-10 -1.6502954812744379e-10 0.0000000000000000e+00  1.3296093014780816e-10 -1.6124319306133041e-10 0.0000000000000000e+00  -1.7496640192555048e-10 -2.1407401109586792e-10 0.0000000000000000e+00  5.2265860137309014e-10 -6.9272197682814569e-11 0.0000000000000000e+00  -2.1474359225788726e-10 -9.0026807976981383e-12 0.0000000000000000e+00  -7.8353558459470998e-10 -4.8536505654551747e-11 0.0000000000000000e+00  -1.7212853529384962e-10 -1.2581432409523916e-10 0.0000000000000000e+00  -5.0361965731377739e-10 -1.3141844639111510e-10 0.0000000000000000e+00  1.7104147940041838e-10 -2.5602886660227356e-10 0.0000000000000000e+00  5.9340903976348920e-10 -9.1281500212154476e-12 0.0000000000000000e+00  2.0722256788549558e-10 -1.1121062943439171e-10 0.0000000000000000e+00  5.5815366750130305e-10 4.3311373680228593e-12 0.0000000000000000e+00  -5.1055858978006836e-10 -2.1634012328586183e-10 0.0000000000000000e+00  5.6900850471809848e-11 -7.9841318668522825e-11 0.0000000000000000e+00  2.9024166016916249e-10 -4.5634779017924423e-11 0.0000000000000000e+00  -3.9216239055682647e-10 -5.7440990051341524e-11 0.0000000000000000e+00  -7.6875852650013783e-10 -4.2746684576868624e-11 0.0000000000000000e+00  8.5932429588679551e-10 -1.8472936012135932e-11 0.0000000000000000e+00  -1.2599999038191975e-09 1.6184122504875245e-11 0.0000000000000000e+00  4.5025629261370690e-11 -5.7151850957030578e-11 0.0000000000000000e+00  -7.8754393769804918e-11 -1.2601015363073974e-10 0.0000000000000000e+00  -5.8325876769144925e-10 -9.2415476021590773e-12 0.0000000000000000e+00  -9.7115301353353925e-10 7.2019370482948869e-12 0.0000000000000000e+00  -2.4871986447532731e-10 -1.7501467063063647e-11 0.0000000000000000e+00  1.1636809260863364e-09 8.8330551368613493e-13 0.0000000000000000e+00  -9.8086294287260732e-10 -5.8737394098879016e-11 0.0000000000000000e+00  -6.5846535493492114e-10 -1.4265528809958238e-10 0.0000000000000000e+00  9.4410075991851563e-10 -6.2019928670597612e-12 0.0000000000000000e+00  7.2720687514362228e-10 7.9626292483747027e-13 0.0000000000000000e+00  4.0362323670921729e-10 -1.5412044973412922e-12 0.0000000000000000e+00  1.3701956988206794e-10 -2.4215118177523365e-11 0.0000000000000000e+00  -4.6156564073517151e-10 -3.6140491272774410e-11 0.0000000000000000e+00  5.3972786334132467e-10 7.2171192735644093e-12 0.0000000000000000e+00  -1.0650735257936147e-09 -2.0024005368488804e-11 0.0000000000000000e+00  3.0032581702336712e-10 -7.9609730628066381e-13 0.0000000000000000e+00  9.7441123592421479e-11 -8.7572839897604507e-12 0.0000000000000000e+00  1.1020859977686981e-09 6.7054959924733824e-12 0.0000000000000000e+00  -6.9469160301440797e-11 -1.8086432692240999e-11 0.0000000000000000e+00  -7.9981961002805647e-10 3.1107870958798019e-12 0.0000000000000000e+00  -1.4860996147914671e-10 -5.1371903822543470e-11 0.0000000000000000e+00  -4.2096616798193490e-10 -1.0780196014094231e-10 0.0000000000000000e+00  -2.4648296773390160e-10 -2.0116464130298095e-10 0.0000000000000000e+00  -3.8004108057103030e-10 -2.4759087063612874e-10 0.0000000000000000e+00  -5.2105152758009806e-11 -2.8196200119776522e-10 0.0000000000000000e+00  3.0054815599703891e-10 -2.7873366726934934e-11 0.0000000000000000e+00  4.4839582071172281e-10 -6.2607566850016453e-11 0.0000000000000000e+00  -1.1183751940530432e-09 6.4792723607819679e-12 0.0000000000000000e+00  6.3220797716244028e-10 5.5987599835347250e-13 0.0000000000000000e+00  1.1068721847504585e-09 -8.8370784591412607e-12 0.0000000000000000e+00  -3.3920651605285461e-10 1.8372566204419573e-10 0.0000000000000000e+00  -1.1401624015510748e-10 5.9545401077328404e-12 0.0000000000000000e+00  -1.2477806498067456e-09 -1.0884692191094431e-11 0.0000000000000000e+00  5.3836882196696528e-10 -1.0968991435373051e-11 0.0000000000000000e+00  3.7814469254517111e-10 2.4197100853627650e-10 0.0000000000000000e+00  9.5990534016919563e-10 4.4046481127419655e-11 0.0000000000000000e+00  9.4183422992530483e-10 8.8664428668960779e-11 0.0000000000000000e+00  -8.2355602004534702e-10 -1.0191531583648109e-10 0.0000000000000000e+00  1.2293195145465791e-09 1.6280639125280415e-11 0.0000000000000000e+00  1.0814944759738812e-09 -1.3811876189196875e-11 0.0000000000000000e+00  -4.2362287476829112e-10 -2.0511870615876136e-13 0.0000000000000000e+00  -4.4097744399496653e-11 -1.6859249143396111e-11 0.0000000000000000e+00  -1.1139203536711915e-10 -5.5381233599470212e-11 0.0000000000000000e+00  1.2629584807398097e-09 -1.6208958809967909e-11 0.0000000000000000e+00  -1.2734787210484342e-09 -3.2785423050675168e-12 0.0000000000000000e+00  -6.7536792269604916e-10 4.0277941381258785e-11 0.0000000000000000e+00  3.8716209433881976e-10 2.4269934148971574e-10 0.0000000000000000e+00  -1.6220567304756778e-10 4.2961276705194788e-11 0.0000000000000000e+00  -7.9705261035621675e-10 -1.4918815976811514e-10 0.0000000000000000e+00  -5.1510836162529268e-10 -4.9427216328081046e-12 0.0000000000000000e+00  4.0499673177417700e-10 4.3996219950878983e-11 0.0000000000000000e+00  1.0261587793132592e-10 -1.9466677706268037e-10 0.0000000000000000e+00  -6.8103858484296675e-10 1.7108455812751509e-12 0.0000000000000000e+00  3.1149648013694988e-10 1.2199290371354588e-11 0.0000000000000000e+00  1.2071800892860426e-09 -1.1159218764205735e-11 0.0000000000000000e+00  7.3112613719167116e-10 -5.3374268606656621e-11 0.0000000000000000e+00  -6.8005139123587921e-10 1.5068793197953648e-10 0.0000000000000000e+00  1.2588207662216766e-10 -2.0590793822424447e-12 0.0000000000000000e+00  -5.7792751415154594e-10 1.1599464698986413e-10 0.0000000000000000e+00  3.6769516394468267e-10 -2.5176188285685510e-10 0.0000000000000000e+00  -1.1653119592423288e-09 -3.0018099412215329e-12 0.0000000000000000e+00  -1.2079627297649283e-09 1.6422884277911251e-11 0.0000000000000000e+00  6.6245181254364203e-10 1.8447254602474316e-10 0.0000000000000000e+00  3.1904919899346208e-10 -1.2107854402780390e-11 0.0000000000000000e+00  2.8152817143710381e-10 1.8667767336856346e-11 0.0000000000000000e+00  4.5715450144505043e-11 -2.9336282774831426e-11 0.0000000000000000e+00  1.0698168578784093e-09 7.0774929378736308e-12 0.0000000000000000e+00  -6.3176957374934794e-10 1.6039935516378032e-10 0.0000000000000000e+00  -1.2770640782631491e-09 5.5688866400999941e-12 0.0000000000000000e+00  2.3053947389484788e-10 -9.0890678745050211e-11 0.0000000000000000e+00  1.3822248443451061e-10 -4.3773252502777732e-11 0.0000000000000000e+00  8.3922259181500092e-10 7.2588814382612898e-13 0.0000000000000000e+00  -1.0069094084183108e-09 -6.2903791675724341e-11 0.0000000000000000e+00  6.0841976732223387e-13 4.3212046628552982e-14 0.0000000000000000e+00  -6.4280408842737095e-10 -7.5083886785082685e-11 0.0000000000000000e+00  2.5386159597532304e-10 1.3877302132268068e-10 0.0000000000000000e+00  6.4178766015742987e-10 -4.3272215471063877e-11 0.0000000000000000e+00  -4.6734611368545823e-10 9.0725274601436023e-11 0.0000000000000000e+00  5.7237911191558535e-11 -5.8872011506299588e-11 0.0000000000000000e+00  1.2836314384166314e-10 -1.4759662453629586e-10 0.0000000000000000e+00  7.2404806521838484e-10 2.0041936813480381e-11 0.0000000000000000e+00  -3.5773724049758032e-10 8.6441749168838325e-11 0.0000000000000000e+00  -6.0165652504754070e-11 -6.9362484769943533e-11 0.0000000000000000e+00  5.1233693700887730e-10 5.5344279731880399e-11 0.0000000000000000e+00  -5.6927517402340010e-10 -1.8847765561881027e-11 0.0000000000000000e+00  -9.0230223949824902e-10 1.4865204121360450e-11 0.0000000000000000e+00  2.0266793532275289e-10 4.8082757639743649e-11 0.0000000000000000e+00  -6.3442253662633365e-10 -1.6865524296922995e-11 0.0000000000000000e+00  -6.5720832774808495e-11 4.0556799144396978e-11 0.0000000000000000e+00  6.7588911661710441e-10 -7.3310858271484769e-11 0.0000000000000000e+00  -3.2124828300017487e-10 -1.2930774559095838e-10 0.0000000000000000e+00  4.0348179079570294e-11 1.3418461171839178e-10 0.0000000000000000e+00  3.3491476035094615e-10 -1.4409654384248427e-11 0.0000000000000000e+00  9.2886057027170804e-10 1.4843223143761347e-11 0.0000000000000000e+00  5.3651994006755467e-10 9.6958422056936703e-11 0.0000000000000000e+00  7.9199371793391438e-10 8.3287203106583371e-11 0.0000000000000000e+00  3.4478603574413594e-10 -1.2429607077645753e-10 0.0000000000000000e+00  -3.1556442416457690e-10 1.6787976108265029e-10 0.0000000000000000e+00  5.1695613016372900e-10 -2.0348660568531760e-11 0.0000000000000000e+00  -3.3167928403308320e-10 -1.5616081812301608e-10 0.0000000000000000e+00  5.4634125386353348e-11 1.5408653530132681e-10 0.0000000000000000e+00  -7.8392165788564143e-10 8.4269580458942332e-11 0.0000000000000000e+00  2.7259521047242899e-10 -1.3899996805933658e-10 0.0000000000000000e+00  -2.3163137750011112e-10 2.7599875878998075e-11 0.0000000000000000e+00  -9.4177119750206563e-10 -2.6391995816057069e-11 0.0000000000000000e+00  -9.7961297614114736e-10 -2.3239027186460390e-11 0.0000000000000000e+00  -8.2937708792954340e-10 3.1508881442213893e-11 0.0000000000000000e+00  7.6822852977566842e-10 -9.6877426799112338e-11 0.0000000000000000e+00  -8.1106892523084299e-10 2.9436555711928051e-11 0.0000000000000000e+00  1.0058909848918739e-09 -1.6158060116400307e-11 0.0000000000000000e+00  -3.0977800704734242e-10 -6.5673133140884701e-11 0.0000000000000000e+00  4.9325466072188021e-10 1.3548450417272663e-10 0.0000000000000000e+00  5.0034565854305860e-10 1.7951206103057348e-11 0.0000000000000000e+00  2.6715033432126041e-10 5.9163901787054561e-11 0.0000000000000000e+00  </DataArray> 
</PointData> 
</Piece>
</UnstructuredGrid>
</VTKFile>