<?xml version="1.0"?>
<VTKFile type="UnstructuredGrid"  version="0.1"  >
<UnstructuredGrid>
<Piece  NumberOfPoints="201" NumberOfCells="657">
<Points>
<DataArray  type="Float64"  NumberOfComponents="3"  format="ascii">-0.06709731518366314 0.3695207947027339 5369.25414372245  -0.4214412376098571 0.5884355654346989 -5369.490267698212  305.8374894053222 0.7206204989356262 -5102.551237639908  579.3507708581668 0.8701017404160618 -4330.746207367842  792.6842454470121 0.09225347009335925 -3137.960493360493  926.8921733034034 -0.08268801716797561 -1645.902847250759  973.0085327574931 -0.1653212033709796 -0.1275630696100587  927.037778772013 -0.1274314426730617 1645.922697052162  792.8234899121683 0.4214486909292576 3137.585120501636  579.7873107324348 0.496193236863224 4330.856123071525  306.3113314439514 0.5232981991331569 5102.524043839837  387.8955027841602 -770.603827305824 -4660.636813747014  385.3082358463448 598.8028182689994 4776.723692205235  929.0136278828153 -709.308897450591 -789.2285528742983  675.0460139436725 -758.3082944531361 3564.160788695606  847.8803775655899 712.1573536714812 2241.797587356271  844.2472107465862 711.7468919966415 -2281.258971336407  432.7512946476541 691.374951692935 -4598.227383053715  149.6080257858803 -685.5455938988421 5104.137856439097  670.269402724508 -698.9394600908793 -3640.084199578102  470.3504717246779 -1367.181478768229 -3766.831571208614  695.1780613419243 -1355.307444919551 -2588.06822402619  481.2971246783981 -1934.259045229451 -2489.169528104743  674.5740689939176 -1829.530329934672 -1223.671238675045  427.4918656846298 -2316.789472430832 -1040.902766637914  605.2254310502524 -2084.894647789035 262.9075616661808  320.8557206586681 -2476.095555235192 475.098643342973  463.0378475736241 -2144.881828506269 1802.247272286027  167.8472656673561 -2398.372322062681 1918.519243049869  296.4609663615828 -1941.494023511783 3171.503870975719  -11.45047191277149 -2084.086271415255 3178.868749320417  702.9296566306108 -1691.123560160263 1518.349789334743  670.5256832789662 699.2583564701648 3640.149020906233  681.651408263134 1363.192401501929 2677.255663873292  821.5233362581764 1318.048719380268 1209.338623890997  110.7464048777419 -1534.533985493307 4255.891834471033  403.4040387272917 -1350.394135445729 4008.767269677789  470.2637148730136 1288.225204843044 3883.850338842658  455.3395351450462 1901.447818279903 2717.792748631448  930.7415110538644 -691.6825016780673 789.1163448068875  826.9627886671346 -1427.743999030445 91.31602527963526  849.4013855958062 -712.755382474659 -2220.00832996941  149.2618299821755 686.5256783778381 -5104.470194881212  663.9019787010128 681.1243255429184 -3690.309529318294  676.441050935596 1355.098289301166 -2731.421925903582  208.0067095964693 -2324.449668779978 -2161.064670730313  -145.7318349637882 -2427.834084322479 1816.23263277164  201.2668020235822 -1391.673343117184 -4369.758167302798  815.9039826692825 1333.502866519011 -1249.96832169149  616.8115972995873 1919.32732937187 -1507.084587150985  439.0747420302968 1850.702765180989 -2924.892750795407  348.8392167991766 2320.319617724202 -1627.090704851229  153.9468668906632 2162.544878149137 -2848.428098340355  45.40825403654195 2510.625371449004 -1477.388913983006  -158.1617559943572 2228.451017459815 -2628.998965237543  -261.4938020072389 2469.933104214483 -1113.677002892313  -457.6909464959532 2104.695429891799 -2012.356709774996  -50.36291190074777 2618.700853080108 98.47112480157048  -319.3393763901786 -2008.851904316941 2929.165131513316  -441.5531629703857 -2241.616821265908 1448.203109459252  -537.0629866669454 2199.013722834501 -543.3566111017204  -703.4497080526263 1720.114625463822 -1377.267675661216  -748.1692692185835 1721.052518429642 123.1854411176363  -870.2678321531369 1136.56426136562 -859.6662620635739  -881.3352673335711 1079.348549635261 801.8679061141016  -775.7263406988477 1069.046099589558 -2451.650291682608  -719.3234674675101 1586.455453319034 1728.814006255525  -916.3319297205055 470.7245084896184 -1560.748125730558  -815.6325148207178 881.1864568663971 2359.22030217031  -784.0607078046395 299.2428107206855 -3147.501345610978  -877.3020978837314 -340.7579989705373 -2243.081597389022  -611.9511795866738 1316.663429790131 3209.887007645132  -137.2953953433407 -1056.353507556567 4825.882146156123  -597.9007204821593 -1728.292716140575 2385.113684718053  -706.3895035998713 -455.6432380642723 -3596.685746263735  -763.6234366635633 -1078.732373416459 -2544.87474494446  -936.3272208555788 299.4105834818156 1346.3445941658  -333.4987624736868 1723.835106023872 -3566.268855089175  -673.4816222835326 560.6764799248002 3723.927376883383  214.6883772910561 1737.91848777334 3787.241449785881  -905.0530446346992 -892.5552280861095 -902.8356848460961  -574.4239735156805 180.9152242691589 -4336.930497924975  -449.1692867941543 991.7884467223383 4304.14761894446  -553.895720117775 -1146.646580699756 -3746.321762764293  -581.6517831333621 -1724.685273049895 -2509.070746508908  -491.9115479906129 1941.671366366502 2407.656332460709  -253.621914200859 -2533.607368981187 344.1077253610798  -472.1259142517236 166.5967049453667 4695.14528200598  -693.6295237360862 -242.00657314908 3753.85913605281  -337.2574710459599 -1712.148740885995 -3578.840384182755  -339.9551782868849 -2204.221641030975 -2214.533859576029  -289.6692133363123 -1072.70479667343 -4609.760461252951  506.976467741216 2263.874400825607 -150.7364951157232  -676.2414656722527 -1866.755207521383 946.080629209437  -807.3605719187075 -1260.119347098523 1654.000048265139  179.7185366691955 2258.923278289179 2482.988983759117  -64.75350779084003 2025.596067323188 3317.347514466225  -22.26594877246456 1512.569201708276 4329.351182935705  -268.5969961870704 635.8308220972849 4988.261064777508  -448.3736170184612 -1396.645215410152 3797.621963526873  235.1700408754142 1698.555741364781 -3827.710365354187  -558.6104705804636 -2097.988941257527 -1165.936337050062  -73.98999289823176 1292.209001801184 -4611.656321074249  -163.259362673075 551.0802170840618 -5165.295582707622  -111.9507239783216 2439.99774675607 1815.899473339578  -209.5572249939915 -390.1207984654491 5180.561716573487  -72.58115653859483 -2124.749343934302 -3045.645755949943  -451.6055007666261 -630.3976261189231 4580.936996315132  -693.47271462994 -1031.855705719611 3148.497728489288  -856.8865305544816 -499.9719528610169 2360.205748379283  -934.9370464959088 -654.5046169593667 747.1092291666308  -968.7256342579 -85.36569394927082 -462.3366149769466  -381.439887008616 1102.202895213933 -4380.249198170407  -576.5655920971827 1230.026380359784 -3528.090946014273  -85.67800712449016 -2459.286637998271 -1750.592781362628  -34.07623288400766 1907.378270442968 -3606.593353731221  399.6702327104361 2302.832455238294 1395.663847037279  844.2561453457533 -680.9877389414936 2322.705192113178  49.39592706483065 -718.7346067459397 -5141.283963185693  159.145240729276 -2556.960870412064 -823.658154267859  -303.5378292909934 1648.117209280521 3784.982453036971  932.7562596281088 664.2880238988422 -806.1257367982477  634.7148488626817 1903.256604369622 1373.167472810966  745.2045697592586 1731.408781610738 -60.89026875927573  -753.7195863511409 -1563.262039592792 -1348.728712844759  -332.9278669299264 2467.442878742913 415.9313142618292  -554.5769142476989 2129.641333441657 976.7887348886596  -54.22686847341082 -1568.754317809949 -4233.118981075732  -231.4090344032812 -283.1293204528939 -5184.583715775715  -485.9520123134893 -458.2663236069102 -4567.021710961645  232.6133595270541 2548.987326991767 -273.2414926861566  27.39696286213221 -2604.660952539543 594.2447184072224  548.4000009153746 -1643.55097209117 2908.844203579334  934.3773008263036 673.1691332636666 715.3679925050765  433.2874759082325 -685.1520465966713 4600.531819268687  -831.480127004284 -1407.100391393295 131.5290117856476  -178.5805332837075 -1698.466188413071 3911.633794405582  483.0702525590524 1248.438547080861 -3891.599325567264  -838.1334487586472 208.8723228828181 2717.466953843264  224.4007563163212 -1926.381560429265 -3367.100147993272  243.7979658791606 1230.118182550334 4516.234804422982  143.5582881890103 2532.879993870375 1123.949486160363  -616.8785895168934 1636.351882598724 -2507.869419613861  821.8664439964272 -1268.808683650082 -1393.409578188552  -15.12126216709347 662.1739881261635 5182.476012942989  746.3799999244759 -1227.223704715294 2423.667199838093  -946.8209482551152 630.0712091683816 -121.0788149685078  -516.6336129863301 -2250.329911914809 51.50869531558443  -317.2860774092876 -2450.433980752532 -886.0352889929861  879.4398729066442 1166.352794840827 -37.08881105413631  -222.0950032553467 1261.982123519062 4510.358394602243  275.9986435608919 1145.296879378602 -4558.428265322649  -334.3175361531601 188.0276123122428 -5034.906070777422  -366.36022126598 2288.846354899216 1698.537738227317  835.1758230947698 -1180.002155272167 1465.780615427422  -68.65929198592076 -2602.914324860171 -537.0337471961258  -632.6166513432249 671.7322962374277 -3861.467459890619  -434.109956324992 565.4682429554896 -4669.850637247989  -279.7803136041902 2090.986116976309 2805.408639752685  -697.1288851170939 -1867.001941258497 -298.5784523888678  0.003729703974166873 0.05912410563279912 -0.1677633957188545  -311.6189123653982 -1038.520061573308 147.5795307332262  468.811431485791 405.2197554093241 -24.48093463164436  -187.9063826712304 1088.511956981401 1173.551643763355  350.6457601781935 -772.7106991478483 1067.245168998543  -228.4603539322548 112.090209490117 -2373.577834741869  -481.7132689805857 206.1404267538169 1.900162907906735  92.81344944426934 1231.124461707799 -1019.399531892882  326.6163606913529 -606.6972373058127 -1595.952185617427  -253.8529941205194 -114.5712696091954 2301.769297411477  244.4920473219507 913.5623412874253 1855.994236104167  -90.42810141910198 -1041.185783392555 -2017.063380124702  81.08317332096919 -1511.23562671526 9.772806855783582  194.2856838276393 397.8831865521665
[...]
<PointData  Vectors="Self-Gravity"> 
<DataArray  type="Float64"  Name="Self-Gravity"  NumberOfComponents="3" format="ascii">-2.8229701617668620e-05 -2.8694697289349580e-06 -4.8032816351754550e-05  -2.2762254927587845e-05 -1.5019262199786920e-06 5.2495658990385926e-05  -7.8013573037010828e-05 4.2085026966600833e-07 4.9429227733740202e-05  -1.7227770141487755e-04 3.9063960774150797e-06 4.6202457125168497e-05  -1.6794140553037039e-04 -1.0320819116789324e-06 2.1625412932876769e-05  -2.8119396462863164e-04 7.5301282560029893e-06 1.7239009328223749e-05  -3.0458701383108850e-04 -1.1379023740511795e-06 2.7398823851786369e-06  -3.0054067762379439e-04 -8.2540337004369461e-06 -1.4643174030398045e-05  -1.8766058361612198e-04 1.8453263458478661e-06 -2.4874389385275528e-05  -1.6407020185318818e-04 5.3542262298880360e-07 -4.1780337970998677e-05  -7.6852955396965509e-05 8.8546018312599378e-06 -4.1268964633607000e-05  -1.0438556217140693e-04 3.3023849666915614e-05 4.4769321141033516e-05  -1.1339796509468013e-04 -2.9477553037113245e-05 -5.0405957103918312e-05  -2.5692116847328612e-04 2.6606955444274149e-05 5.7562564507852652e-06  -1.7879356089307822e-04 3.0888685882958373e-05 -3.7701157522994394e-05  -2.2824466739261386e-04 -2.7397783637090628e-05 -2.3880357883488790e-05  -2.3384065901689189e-04 -3.0549655668053639e-05 2.5241754507533818e-05  -1.1949279415408257e-04 -2.8735280980381416e-05 4.8141363319165408e-05  -4.3679439707303337e-05 3.0242859751126821e-05 -4.8484921601119968e-05  -1.8808892290201142e-04 3.3645228547941816e-05 3.7271699754254245e-05  -1.3653257050451193e-04 6.1857838147715431e-05 3.9464486510325536e-05  -2.0671622071162421e-04 6.5461465494819383e-05 2.6211919787893677e-05  -1.4263336225591090e-04 8.8179300732806466e-05 2.3099926383594964e-05  -1.7509137420386811e-04 7.1352113390004923e-05 9.0129081264277582e-06  -1.1348354435675169e-04 9.4287857811130126e-05 1.0838301567222683e-05  -1.6072045724990257e-04 8.5478753260678357e-05 -5.3710766450156633e-06  -1.0378378565988718e-04 1.0629806574117610e-04 -5.8785791435452124e-06  -1.2124616361627569e-04 9.0829094811339505e-05 -1.9071757736136356e-05  -3.9969237217440267e-05 9.5438109006685097e-05 -1.9125696258810132e-05  -5.9781861898181450e-05 6.2263079187282189e-05 -2.1292886034062768e-05  7.2482037180762902e-06 9.3286729744232870e-05 -3.1853731447370366e-05  -2.0772519027500774e-04 8.2037376606306850e-05 -1.7134025663263915e-05  -1.8808974281966419e-04 -3.1495478520916606e-05 -3.3406845573467885e-05  -1.7307844317090211e-04 -5.2986022765325714e-05 -2.3302052667916623e-05  -2.2998805285410080e-04 -4.8950792323837268e-05 -1.5384532679108041e-05  -2.6008892371024818e-05 7.0302235137284513e-05 -4.7475995366303508e-05  -1.0898827307799164e-04 5.7766651882832445e-05 -4.1720087131067789e-05  -1.5019397743803306e-04 -6.0175575171572146e-05 -3.8863600504773474e-05  -1.4386120459173991e-04 -8.3672892599706965e-05 -2.4243931184682186e-05  -2.4731263147724394e-04 1.7503166376901360e-05 -7.4768143376638578e-06  -2.3336005123740888e-04 5.9887065438628201e-05 -2.3462899879052513e-06  -2.4158573950620592e-04 2.5031833876228642e-05 2.3578887926237284e-05  -3.7247981543695007e-05 -3.7909977965244430e-05 5.7458547313791975e-05  -1.7892099443254166e-04 -2.6758651544304271e-05 3.4954316773587387e-05  -1.7552707317424276e-04 -5.1868984435845869e-05 2.4345556757478084e-05  -5.3229124210099002e-05 7.7323732881006714e-05 1.9481245502730679e-05  2.6347830218281686e-05 1.0227919149921975e-04 -1.9704239219648417e-05  -5.7153843438822094e-05 6.0169146846622772e-05 4.3298063428297423e-05  -2.5859129373261074e-04 -5.6079777499763752e-05 1.5324628717603503e-05  -1.7057024632868221e-04 -6.7461995691396503e-05 1.2991729537814926e-05  -1.1744602524976638e-04 -8.0079740575125249e-05 2.8879096983479172e-05  -1.2869497277507148e-04 -1.0004954955254487e-04 1.7683921601993782e-05  -4.0760228017140003e-05 -9.3977290887344822e-05 3.1431901118083097e-05  -1.6833829462254100e-05 -1.1251743618075816e-04 1.7764738586097645e-05  4.6454655007688055e-05 -9.7149028084344164e-05 2.4519177875258505e-05  6.0701049448464163e-05 -8.6987939269779805e-05 8.2141911847257788e-06  1.2799211737123163e-04 -9.4015759024061661e-05 2.2606573458599556e-05  1.1643358954544850e-05 -1.0563476958767330e-04 -1.7916118656016497e-06  8.5536271933140518e-05 8.2142825118109092e-05 -2.6225716330849066e-05  9.4445782733967290e-05 8.5273854866444663e-05 -1.3967290586207071e-05  1.5264944477231553e-04 -9.0190676740949672e-05 5.6763136069530838e-06  2.1696252592670051e-04 -7.2525638822860063e-05 1.4208881899363973e-05  1.5948497189066172e-04 -5.2311375685081840e-05 -3.2786209094762618e-06  2.6629633252584151e-04 -5.1535756045997387e-05 7.6420063121935901e-06  2.7602858646546250e-04 -4.6904728137581171e-05 -1.0141304874276701e-05  1.8650349984278893e-04 -3.1048263590491161e-05 2.0019153892795902e-05  2.1432131666920053e-04 -5.4383753232393847e-05 -1.6034530672223201e-05  2.7075119692560062e-04 -1.6426478351112103e-05 1.6165942157709083e-05  2.2753857350277148e-04 -3.3000939129733434e-05 -2.2913141828989741e-05  2.2744020132879774e-04 -5.9214014834697850e-06 2.6762388487132534e-05  2.6808455941816812e-04 1.1853981873479129e-05 1.9975476806138945e-05  1.7170305313269032e-04 -5.5713400628721414e-05 -2.9435531869649568e-05  5.2657832903314909e-05 4.3727801275868610e-05 -4.3104613170909039e-05  1.6123623356367164e-04 7.4610271273819887e-05 -2.4274684330848195e-05  2.2743390950205199e-04 2.1772873140191006e-05 3.6610362519248517e-05  2.0908164541579507e-04 3.9249151678741192e-05 2.6136700180551303e-05  2.7840116144004423e-04 -5.2837143434286308e-06 -1.1720154628376443e-05  1.0209772892875871e-04 -7.7840913301202555e-05 3.6110479381417407e-05  1.6736409762155608e-04 -2.3465099739109105e-05 -2.7108887674668399e-05  -7.4032619661830473e-05 -7.9664816627344809e-05 -4.1752199378306063e-05  2.6761037816179289e-04 3.3373635666774799e-05 7.1620775064922989e-06  1.8394242902716658e-04 -2.3584509601721645e-06 4.3472599843463718e-05  1.4496718303500113e-04 -3.9743573000768126e-05 -4.4794545959668884e-05  1.3977417210794300e-04 4.4512487294191052e-05 3.7192736993041572e-05  1.5686206736308404e-04 6.9475671787358579e-05 2.9653276821592289e-05  1.5442545035566343e-04 -7.7010134350788086e-05 -2.1544706531046443e-05  7.7777438842271154e-05 1.0112746904076025e-04 -4.9050565985369572e-06  1.3784581014697982e-04 -7.1143370793412164e-06 -4.3027045603042101e-05  2.1970115983564848e-04 7.0243442467819914e-06 -3.6923839867405716e-05  9.2584870003767074e-05 7.7864943877232245e-05 3.7357393074821229e-05  7.9590134714854901e-05 7.6261983861588371e-05 1.8102709532865391e-05  6.7730527751635352e-05 4.2683400838161706e-05 4.4971335975438700e-05  -1.3598175949718229e-04 -8.3383009879375365e-05 -1.9013552918344723e-06  1.9354593027400452e-04 7.3676489176331268e-05 -1.2382804315754972e-05  1.9104320110151254e-04 3.5298152715081845e-05 -1.4062541425231761e-05  -6.2288555705171478e-05 -9.6186924467675335e-05 -2.7709950344852907e-05  9.2868953347711669e-06 -9.0954846662402660e-05 -3.5962569479789022e-05  6.8862339365006857e-07 -6.1776323029321702e-05 -4.5879739641563510e-05  8.5745243172067023e-05 -3.1333310089807367e-05 -5.7369901759056951e-05  1.4328282157777871e-04 6.2046364417205893e-05 -4.2135783392542800e-05  -7.7677262663166576e-05 -7.6736574049232755e-05 4.3395792189234384e-05  1.8551062164542451e-04 9.0735279126344154e-05 1.6489946326028791e-05  2.6037372529008260e-05 -5.3451932487641784e-05 4.1212702733303058e-05  4.9483935455224134e-05 -3.5477222134749416e-05 5.2813614989301892e-05  3.4179434352790930e-05 -1.1333569253460383e-04 -1.9468676254029894e-05  6.3967798451858090e-05 6.6641703425835742e-06 -5.9271015054520377e-05  2.3854480967968976e-05 8.8801646642985176e-05 3.0588556020456808e-05  1.3666461372124116e-04 2.1726359448175399e-05 -4.5145104362829294e-05  1.7318842552557271e-04 3.0147695735813705e-05 -2.9785832815950595e-05  2.1763310915420326e-04 1.8423980928776943e-05 -1.9596388589754389e-05  2.3006907745783478e-04 2.4437571691873715e-05 -8.1024852675490289e-06  2.9521763685930636e-04 7.7483558552624403e-06 6.4287928245271734e-06  1.1417625771205608e-04 -4.7669234528227487e-05 4.6692576908872148e-05  1.6406171480892468e-04 -5.7737011079009685e-05 3.4506087572604880e-05  1.1197542644141359e-05 1.1159223976757336e-04 2.2726792982403153e-05  2.2742460587224532e-05 -8.0895785612208605e-05 3.8586777879325853e-05  -1.2199549047356804e-04 -1.0367533247765814e-04 -1.4592312631867556e-05  -2.6127843516884805e-04 2.8086003167063947e-05 -2.1167531700653984e-05  -1.3608933948162428e-06 2.7687837584812432e-05 4.6258629189098781e-05  -3.7502746479508707e-05 1.1541783107237186e-04 1.0482846289646655e-05  1.0722824455788487e-04 -6.9435543959138843e-05 -4.1356716751119694e-05  -2.9130686805503873e-04 -2.6353174291261568e-05 9.7314135430726265e-06  -1.7357412363349937e-04 -7.1648433573941075e-05 -1.2874562963021153e-05  -2.3145372579906840e-04 -7.8745323850775060e-05 -4.1080982086219983e-06  2.1309512023895422e-04 5.7910624786342006e-05 1.2301314260333146e-05  1.1384179958995238e-04 -1.0665093478265911e-04 -3.6410532939042806e-06  1.4120333518992338e-04 -6.5232018249302299e-05 -8.0199919848563037e-06  2.4582049075609214e-05 7.3328386998709771e-05 4.5858465853112203e-05  5.0227312726451999e-05 1.4028118667915006e-05 5.2106679546970492e-05  1.0794449200595828e-04 2.1848846941204419e-05 3.6399243312010122e-05  -7.0666343416772942e-05 -1.1328457404602767e-04 4.2419549193854354e-06  -2.8512866853094349e-05 1.1718500853393256e-04 -8.1484135505310651e-06  -1.7735462324326682e-04 6.9672800572740783e-05 -3.0310297097889218e-05  -2.9042183091064250e-04 -2.9079142183493072e-05 -6.3691615051629966e-06  -1.2428413023314974e-04 2.8290099446724867e-05 -4.6156370184941216e-05  2.4354616818306508e-04 5.3087153963789541e-05 -9.9964110712993810e-07  3.9466792812137166e-05 6.4016787147306122e-05 -3.7370626452763670e-05  -1.3278816571037712e-04 -5.3453920163914856e-05 3.7618127560536059e-05  2.5697755680246500e-04 -5.7073541072450876e-06 -2.7070685820242000e-05  -5.8738030533393033e-05 6.8216956772872598e-05 2.7508730026634231e-05  -6.8825283966764673e-05 -5.3802899315714716e-05 -4.9589439215813055e-05  -3.7636524350144051e-05 -9.0202403954298195e-05 -1.1076244016159658e-05  1.6429970894979158e-04 -6.6129962552877400e-05 2.7378249530501203e-05  -2.3881713329024061e-04 5.3481467098463076e-05 8.9205635743118360e-06  -1.4275454458690301e-05 -3.1352972148114281e-05 -5.1254664452733476e-05  -2.2423778802208453e-04 4.7668388551128946e-05 -2.7188146796850115e-05  2.9173634395354567e-04 -2.7215156562688154e-05 1.7228758359812770e-06  1.5272907887870589e-04 1.0171183554994716e-04 -1.4194920256207520e-07  8.4523715696458617e-05 9.4273946001702507e-05 1.1399391634723548e-05  -2.6889728675011284e-04 -5.2261692851845537e-05 -2.4761988784313961e-06  5.4827598274916643e-05 -3.2809673628004753e-05 -3.9867328047115578e-05  -5.8950679536433935e-05 -5.2312292517368079e-05 4.5948117785815655e-05  1.2854526411927063e-04 2.8681598393622248e-06 4.6651046101578532e-05  1.1886957877612649e-04 -9.6860949527048179e-05 -1.4913319543165102e-05  -2.6976807856698195e-04 4.8796353559103420e-05 -1.4885403688158623e-05  2.8316881144014359e-05 1.1056706912694263e-04 2.0611479821904387e-06  1.6108570410169011e-04 -2.3215772613685300e-05 3.4041187342629184e-05  1.3441108400216950e-04 -2.3886225369809689e-05 5.4001681259613535e-05  9.5550575419162505e-05 -9.4792105114992946e-05 -2.8499232294655763e-05  2.3040836621178643e-04 8.9482193580663822e-05 1.2124337405252473e-06  8.2256026244006507e-06 1.3486583039287105e-05 -1.7695391928341973e-06  1.2821450037034791e-04 5.1275183859890535e-05 -3.2782865399496434e-06  -2.0952541113052010e-04 -1.7609920297417453e-05 -1.7666416176968712e-06  9.3397273971888362e-05 -5.9886312632195497e-05 -1.9040125508299287e-05  -1.4349188383161178e-04 4.0123690657400454e-05 -1.4494219293672421e-05  7.3484032444969037e-05 -1.0936802791736789e-05 3.2341802875595828e-05  1.8232208948706509e-04 -1.1749238337427475e-05 -1.9307453284759458e-06  -3.8912535148088430e-05 -7.1533712713542203e-05 1.9089471450842818e-05  -1.3217172942461112e-04 3.4370508253788216e-05 1.8645366149485658e-05  1.0094374844748411e-04 1.1491114131709836e-05 -3.0883124698371714e-05  -1.1172547004533313e-04 -5.5929141605035843e-05 -3.1993974603810331e-05  4.0013318682012648e-05 4.7990202128253411e-05 2.2936623136581308e-05  -3.0027222548545482e-05 6.7507638264993297e-05 1.3563841714093614e-06  -8.3723933311728802e-05 -2.7134682272718158e-05 4.1791171877537437e-05  3.7506900823959673e-05 5.2053612515437253e-05 -2.6816839426109621e-05  -5.9567242456103996e-05 1.8049618252892091e-05 -4.0579546249359214e-05  1.1492673878251412e-04 -5.4072827222680871e-05 1.2141974804791543e-05  1.8365846247634255e-04 3.2227162059699727e-05 1.4179857766489977e-05  -1.7787318311329105e-04 -6.1516820377019818e-07 -2.5702774475483063e-05  2.4648873089313502e-05 -4.3580876361784728e-05 -4.4227805916039797e-05  -4.6323751629448877e-05 -9.1546279287208819e-05 -1.5750048870117300e-05  -1.6322265685723435e-04 -5.5402197716064647e-05 2.4455962965392273e-05  -1.4579443560699395e-04 -7.0749512484746802e-05 -1.4142172140267547e-07  1.9037085652529766e-04 -2.9185099070041937e-05 -2.8054341372867951e-05  -2.4422044436746862e-04 2.7376654187840645e-05 3.1427283083494140e-06  3.8960262219164662e-05 -6.3886085314161285e-05 3.9214762865158983e-05  2.2121997245442895e-04 2.9950032005202473e-05 -1.6725157777819662e-05  -2.1034756848522132e-04 -8.0994945898368456e-06 2.3311920594689897e-05  -1.6859331177280826e-04 7.3603532246164385e-05 4.9715996444802092e-06  2.0495904795925346e-04 -2.3967953076820545e-05 2.3883689429286584e-05  -5.3018614836861226e-05 2.5973953996262975e-05 3.9261750308170889e-05  8.1381992494974890e-05 9.0877209647765379e-05 1.6034022964421905e-05  7.2061453047879973e-05 9.4697264209068989e-05 -1.5280070765852348e-05  -8.6299207632418144e-05 8.3292570567558466e-05 -2.1969614347727559e-05  1.7920944445398891e-04 -6.5687035261462854e-05 -4.3270016466732951e-06  -7.4625535050081373e-05 7.9263002769375024e-05 2.8078626352560175e-05  6.0660404081978414e-05 -9.3106748817397289e-05 4.0021568319796234e-06  1.2365961202006866e-04 3.4917343596260328e-05 3.9267384557949099e-05  -2.2019994206035081e-04 -4.7259204926046099e-05 -1.8181290243246627e-05  -2.9740352406282808e-05 -3.6251839807002520e-05 -1.5177778497383038e-05  -7.4791376991864886e-05 -1.7804269602531253e-05 1.9701202559068504e-05  </DataArray> 
</PointData> 
</Piece>
</UnstructuredGrid>
</VTKFile>