<?xml version="1.0"?>
<VTKFile type="UnstructuredGrid"  version="0.1"  >
<UnstructuredGrid>
<Piece  NumberOfPoints="201" NumberOfCells="657">
<Points>
<DataArray  type="Float64"  NumberOfComponents="3"  format="ascii">-0.06709731518366314 0.3695207947027339 5369.25414372245  -0.4214412376098571 0.5884355654346989 -5369.490267698212  305.8374894053222 0.7206204989356262 -5102.551237639908  579.3507708581668 0.8701017404160618 -4330.746207367842  792.6842454470121 0.09225347009335925 -3137.960493360493  926.8921733034034 -0.08268801716797561 -1645.902847250759  973.0085327574931 -0.1653212033709796 -0.1275630696100587  927.037778772013 -0.1274314426730617 1645.922697052162  792.8234899121683 0.4214486909292576 3137.585120501636  579.7873107324348 0.496193236863224 4330.856123071525  306.3113314439514 0.5232981991331569 5102.524043839837  387.8955027841602 -770.603827305824 -4660.636813747014  385.3082358463448 598.8028182689994 4776.723692205235  929.0136278828153 -709.308897450591 -789.2285528742983  675.0460139436725 -758.3082944531361 3564.160788695606  847.8803775655899 712.1573536714812 2241.797587356271  844.2472107465862 711.7468919966415 -2281.258971336407  432.7512946476541 691.374951692935 -4598.227383053715  149.6080257858803 -685.5455938988421 5104.137856439097  670.269402724508 -698.9394600908793 -3640.084199578102  470.3504717246779 -1367.181478768229 -3766.831571208614  695.1780613419243 -1355.307444919551 -2588.06822402619  481.2971246783981 -1934.259045229451 -2489.169528104743  674.5740689939176 -1829.530329934672 -1223.671238675045  427.4918656846298 -2316.789472430832 -1040.902766637914  605.2254310502524 -2084.894647789035 262.9075616661808  320.8557206586681 -2476.095555235192 475.098643342973  463.0378475736241 -2144.881828506269 1802.247272286027  167.8472656673561 -2398.372322062681 1918.519243049869  296.4609663615828 -1941.494023511783 3171.503870975719  -11.45047191277149 -2084.086271415255 3178.868749320417  702.9296566306108 -1691.123560160263 1518.349789334743  670.5256832789662 699.2583564701648 3640.149020906233  681.651408263134 1363.192401501929 2677.255663873292  821.5233362581764 1318.048719380268 1209.338623890997  110.7464048777419 -1534.533985493307 4255.891834471033  403.4040387272917 -1350.394135445729 4008.767269677789  470.2637148730136 1288.225204843044 3883.850338842658  455.3395351450462 1901.447818279903 2717.792748631448  930.7415110538644 -691.6825016780673 789.1163448068875  826.9627886671346 -1427.743999030445 91.31602527963526  849.4013855958062 -712.755382474659 -2220.00832996941  149.2618299821755 686.5256783778381 -5104.470194881212  663.9019787010128 681.1243255429184 -3690.309529318294  676.441050935596 1355.098289301166 -2731.421925903582  208.0067095964693 -2324.449668779978 -2161.064670730313  -145.7318349637882 -2427.834084322479 1816.23263277164  201.2668020235822 -1391.673343117184 -4369.758167302798  815.9039826692825 1333.502866519011 -1249.96832169149  616.8115972995873 1919.32732937187 -1507.084587150985  439.0747420302968 1850.702765180989 -2924.892750795407  348.8392167991766 2320.319617724202 -1627.090704851229  153.9468668906632 2162.544878149137 -2848.428098340355  45.40825403654195 2510.625371449004 -1477.388913983006  -158.1617559943572 2228.451017459815 -2628.998965237543  -261.4938020072389 2469.933104214483 -1113.677002892313  -457.6909464959532 2104.695429891799 -2012.356709774996  -50.36291190074777 2618.700853080108 98.47112480157048  -319.3393763901786 -2008.851904316941 2929.165131513316  -441.5531629703857 -2241.616821265908 1448.203109459252  -537.0629866669454 2199.013722834501 -543.3566111017204  -703.4497080526263 1720.114625463822 -1377.267675661216  -748.1692692185835 1721.052518429642 123.1854411176363  -870.2678321531369 1136.56426136562 -859.6662620635739  -881.3352673335711 1079.348549635261 801.8679061141016  -775.7263406988477 1069.046099589558 -2451.650291682608  -719.3234674675101 1586.455453319034 1728.814006255525  -916.3319297205055 470.7245084896184 -1560.748125730558  -815.6325148207178 881.1864568663971 2359.22030217031  -784.0607078046395 299.2428107206855 -3147.501345610978  -877.3020978837314 -340.7579989705373 -2243.081597389022  -611.9511795866738 1316.663429790131 3209.887007645132  -137.2953953433407 -1056.353507556567 4825.882146156123  -597.9007204821593 -1728.292716140575 2385.113684718053  -706.3895035998713 -455.6432380642723 -3596.685746263735  -763.6234366635633 -1078.732373416459 -2544.87474494446  -936.3272208555788 299.4105834818156 1346.3445941658  -333.4987624736868 1723.835106023872 -3566.268855089175  -673.4816222835326 560.6764799248002 3723.927376883383  214.6883772910561 1737.91848777334 3787.241449785881  -905.0530446346992 -892.5552280861095 -902.8356848460961  -574.4239735156805 180.9152242691589 -4336.930497924975  -449.1692867941543 991.7884467223383 4304.14761894446  -553.895720117775 -1146.646580699756 -3746.321762764293  -581.6517831333621 -1724.685273049895 -2509.070746508908  -491.9115479906129 1941.671366366502 2407.656332460709  -253.621914200859 -2533.607368981187 344.1077253610798  -472.1259142517236 166.5967049453667 4695.14528200598  -693.6295237360862 -242.00657314908 3753.85913605281  -337.2574710459599 -1712.148740885995 -3578.840384182755  -339.9551782868849 -2204.221641030975 -2214.533859576029  -289.6692133363123 -1072.70479667343 -4609.760461252951  506.976467741216 2263.874400825607 -150.7364951157232  -676.2414656722527 -1866.755207521383 946.080629209437  -807.3605719187075 -1260.119347098523 1654.000048265139  179.7185366691955 2258.923278289179 2482.988983759117  -64.75350779084003 2025.596067323188 3317.347514466225  -22.26594877246456 1512.569201708276 4329.351182935705  -268.5969961870704 635.8308220972849 4988.261064777508  -448.3736170184612 -1396.645215410152 3797.621963526873  235.1700408754142 1698.555741364781 -3827.710365354187  -558.6104705804636 -2097.988941257527 -1165.936337050062  -73.98999289823176 1292.209001801184 -4611.656321074249  -163.259362673075 551.0802170840618 -5165.295582707622  -111.9507239783216 2439.99774675607 1815.899473339578  -209.5572249939915 -390.1207984654491 5180.561716573487  -72.58115653859483 -2124.749343934302 -3045.645755949943  -451.6055007666261 -630.3976261189231 4580.936996315132  -693.47271462994 -1031.855705719611 3148.497728489288  -856.8865305544816 -499.9719528610169 2360.205748379283  -934.9370464959088 -654.5046169593667 747.1092291666308  -968.7256342579 -85.36569394927082 -462.3366149769466  -381.439887008616 1102.202895213933 -4380.249198170407  -576.5655920971827 1230.026380359784 -3528.090946014273  -85.67800712449016 -2459.286637998271 -1750.592781362628  -34.07623288400766 1907.378270442968 -3606.593353731221  399.6702327104361 2302.832455238294 1395.663847037279  844.2561453457533 -680.9877389414936 2322.705192113178  49.39592706483065 -718.7346067459397 -5141.283963185693  159.145240729276 -2556.960870412064 -823.658154267859  -303.5378292909934 1648.117209280521 3784.982453036971  932.7562596281088 664.2880238988422 -806.1257367982477  634.7148488626817 1903.256604369622 1373.167472810966  745.2045697592586 1731.408781610738 -60.89026875927573  -753.7195863511409 -1563.262039592792 -1348.728712844759  -332.9278669299264 2467.442878742913 415.9313142618292  -554.5769142476989 2129.641333441657 976.7887348886596  -54.22686847341082 -1568.754317809949 -4233.118981075732  -231.4090344032812 -283.1293204528939 -5184.583715775715  -485.9520123134893 -458.2663236069102 -4567.021710961645  232.6133595270541 2548.987326991767 -273.2414926861566  27.39696286213221 -2604.660952539543 594.2447184072224  548.4000009153746 -1643.55097209117 2908.844203579334  934.3773008263036 673.1691332636666 715.3679925050765  433.2874759082325 -685.1520465966713 4600.531819268687  -831.480127004284 -1407.100391393295 131.5290117856476  -178.5805332837075 -1698.466188413071 3911.633794405582  483.0702525590524 1248.438547080861 -3891.599325567264  -838.1334487586472 208.8723228828181 2717.466953843264  224.4007563163212 -1926.381560429265 -3367.100147993272  243.7979658791606 1230.118182550334 4516.234804422982  143.5582881890103 2532.879993870375 1123.949486160363  -616.8785895168934 1636.351882598724 -2507.869419613861  821.8664439964272 -1268.808683650082 -1393.409578188552  -15.12126216709347 662.1739881261635 5182.476012942989  746.3799999244759 -1227.223704715294 2423.667199838093  -946.8209482551152 630.0712091683816 -121.0788149685078  -516.6336129863301 -2250.329911914809 51.50869531558443  -317.2860774092876 -2450.433980752532 -886.0352889929861  879.4398729066442 1166.352794840827 -37.08881105413631  -222.0950032553467 1261.982123519062 4510.358394602243  275.9986435608919 1145.296879378602 -4558.428265322649  -334.3175361531601 188.0276123122428 -5034.906070777422  -366.36022126598 2288.846354899216 1698.537738227317  835.1758230947698 -1180.002155272167 1465.780615427422  -68.65929198592076 -2602.914324860171 -537.0337471961258  -632.6166513432249 671.7322962374277 -3861.467459890619  -434.109956324992 565.4682429554896 -4669.850637247989  -279.7803136041902 2090.986116976309 2805.408639752685  -697.1288851170939 -1867.001941258497 -298.5784523888678  0.003729703974166873 0.05912410563279912 -0.1677633957188545  -311.6189123653982 -1038.520061573308 147.5795307332262  468.811431485791 405.2197554093241 -24.48093463164436  -187.9063826712304 1088.511956981401 1173.551643763355  350.6457601781935 -772.7106991478483 1067.245168998543  -228.4603539322548 112.090209490117 -2373.577834741869  -481.7132689805857 206.1404267538169 1.900162907906735  92.81344944426934 1231.124461707799 -1019.399531892882  326.6163606913529 -606.6972373058127 -1595.952185617427  -253.8529941205194 -114.5712696091954 2301.769297411477  244.4920473219507 913.5623412874253 1855.994236104167  -90.42810141910198 -1041.185783392555 -2017.063380124702  81.08317332096919 -1511.23562671526 9.772806855783582  194.2856838276393 397.8831865521665
[...]
<PointData  Scalars="Pressure"> 
<DataArray  type="Float64"  Name="Pressure"  format="ascii">-1.4596294396691705e-04  1.9199910724232794e-03  -1.8355487752192182e-03  -9.2022954240353013e-04  -9.2165827327944493e-03  -9.7822221275462324e-03  -7.9465981103116999e-03  -5.6814080759369622e-03  -9.1795335446286548e-03  -3.7536165052219693e-03  -3.2645938846686362e-03  -2.2079949516399812e-03  2.8913207892414675e-03  -9.8634641802452794e-03  -1.8324615544339587e-03  -7.5290566739765735e-03  -7.3869862912582587e-03  -1.7378906515718938e-03  -3.0769669519335795e-04  -3.6854796151489806e-03  2.2099924301518222e-03  1.4113096857789687e-03  2.8318532121795843e-03  -8.6082612756235995e-04  6.8801949476065150e-03  2.0469935541617967e-03  9.0797782375466596e-03  4.3283391995421194e-03  6.9920474644167780e-03  2.8279839363577202e-03  7.1779794342221523e-03  2.2659155956842071e-03  -4.9666165856492427e-03  -3.6592174659670815e-03  -5.7978409606206805e-03  4.7754216079598649e-03  3.3687391094962115e-03  -2.6236467752297307e-04  4.7187517784443075e-03  -1.0364191105025830e-02  -2.8026162309545992e-03  -6.1472574400253778e-03  1.4779865598829735e-03  -4.5396584311185265e-03  -3.4706595556982115e-03  5.8145781218719682e-03  7.3338732856503197e-03  2.7580250129995115e-03  -6.9699794250943918e-04  5.5507781222719984e-04  2.9103720613817300e-03  8.5582829393262699e-03  7.4409279719149859e-03  1.0277920166514472e-02  8.3282101613281097e-03  7.6206493667595248e-03  5.6831929445161078e-03  1.0170668227708320e-02  4.6021807858280710e-03  4.7336515252079242e-03  4.8446658621558352e-03  8.2666013510774477e-04  -3.0266826484678221e-03  -3.6582250494857191e-03  -3.7589613009602054e-03  -6.7101436612387487e-03  -2.3322533102817277e-03  -9.0167371845150876e-03  -6.9407327747065739e-03  -7.6663794088443465e-03  -8.1034472436997632e-03  -2.2305916185956097e-03  3.2008177871126605e-03  3.0896754535468677e-03  -5.3307407893907711e-03  -4.7065989668704632e-03  -7.8601351104728816e-03  3.0170997254212184e-03  -6.6287455474188404e-03  4.8877225432869612e-03  -7.9544654615089447e-03  -3.1534013219440518e-03  4.8459959943833859e-04  -2.4602601394554577e-03  2.5853029723272984e-03  2.8837294994500293e-03  8.2164082087614193e-03  -2.0947025761550320e-03  -3.5892048396303777e-03  3.8959876955162068e-03  4.4654100506292746e-03  -1.7989464688052453e-03  4.5508757369932991e-03  1.7917159926590280e-03  -5.9101863238770966e-03  7.3072686791527423e-03  9.4167952923364297e-03  1.8541060052556621e-03  -1.7289155767395408e-03  4.1649034306280742e-03  7.6249195841373079e-03  6.2334863976749137e-03  6.8192238801742045e-04  2.3566046028218428e-03  1.1317854991415998e-02  2.4582075274257645e-03  6.3608376662781145e-03  -2.3974452176931107e-03  -4.7878404617254259e-03  -9.3339027485930277e-03  -1.0505368851366929e-02  -6.3265673846437422e-03  2.1232351023144978e-03  -1.0982041052144220e-03  9.0916334149257656e-03  4.1388481200561730e-03  6.7098982673752762e-03  -5.6631779842998067e-03  -1.1651035105539487e-03  1.0853391753594484e-02  5.5722164785356977e-03  -8.2681897103561892e-03  2.9957533276596284e-05  -5.6393673790653103e-04  -2.2380176004167924e-03  8.2500785463710796e-03  2.2215186769767837e-03  5.6167278076303118e-03  -5.3243238132597535e-04  -4.5899095157384273e-03  1.1858312301513048e-02  1.1342524926113304e-02  1.5177972638048096e-03  -8.6578066130102421e-03  -2.1530426499106674e-03  -2.7345028873982085e-03  2.9493305001383530e-03  -4.7359243951332732e-04  -7.7866354295780989e-03  2.6567226674534513e-03  2.4359222111120316e-03  7.8204906133781341e-03  -8.8308018973323545e-05  -5.3526603926215320e-03  -4.9135086201918118e-04  -2.6652435027462455e-03  -8.3801129690836123e-03  7.4385057164903911e-03  7.3658510861058669e-03  -2.9914445147307188e-03  -1.3460163971611361e-04  1.0358226477893877e-03  -2.2707083153717545e-03  8.4581558996050851e-03  -4.0698942585893133e-03  1.0684261956487777e-02  -5.1045717449557260e-03  -1.3808299638768924e-03  4.7352784631196900e-03  1.7274796608108941e-03  1.5443512698927969e-01  1.1302876110775245e-01  1.0959365279186598e-01  1.1376059638135705e-01  1.1279531459721920e-01  1.1198210882684491e-01  1.0889986628419716e-01  1.1388044476183648e-01  1.1036886896267077e-01  1.1262670348784923e-01  1.0434015450810341e-01  1.0430489350449931e-01  1.0486995761632752e-01  1.0139281198710547e-01  1.0062519562637022e-01  1.0435877588292894e-01  1.0149380089062704e-01  9.4156066433817506e-02  9.0789673516429387e-02  9.1798010744773173e-02  9.2688131588492650e-02  8.7478549793225432e-02  8.6560638042511351e-02  8.8075901081168223e-02  8.6062649479131642e-02  8.6782683503375660e-02  8.3967333230174704e-02  8.2243073409441342e-02  8.5845893952977315e-02  8.3147838112698658e-02  8.8076278291336185e-02  8.4484228009058915e-02  7.9260728261502711e-02  8.1057128788092805e-02  7.4109766444025477e-02  8.3839012695845871e-02  8.4194402290848208e-02  7.6293760644888048e-02  7.3905554680511229e-02  1.3647703247298232e-01  1.3422018994918572e-01  </DataArray> 
</PointData> 
</Piece>
</UnstructuredGrid>
</VTKFile>