<?xml version="1.0"?>
<VTKFile type="UnstructuredGrid"  version="0.1"  >
<UnstructuredGrid>
<Piece  NumberOfPoints="201" NumberOfCells="657">
<Points>
<DataArray  type="Float64"  NumberOfComponents="3"  format="ascii">-8.348011146774295e-05 0.0003133578076552688 5499.872870187764  -0.000407221998080524 0.0005715351824881638 -5499.87310325304  309.0139944485506 0.0006928694067040929 -5230.68609430108  587.7773229602498 0.0008247870198969714 -4449.477761169121  809.0016799475458 9.766881248024153e-05 -3232.726422286659  951.0339175280716 -6.832864592906637e-05 -1699.541075622559  999.9747868154276 -0.0001475631688062505 -0.0001260700604694331  951.0340457101986 -0.0001330124695701908 1699.541090240417  809.0017995426127 0.0003677840867340533 3232.726055159324  587.7777234883229 0.0004339760675490947 4449.477880084906  309.0144336879998 0.0004614707129067338 5230.68606841495  391.4931890512385 -753.6314773614243 -4781.595572489995  388.9428394847483 585.397933061157 4900.415381034541  951.8275272417933 -670.8930352186267 -815.3048172479865  685.3127735711017 -732.0763423305489 3667.163113301524  865.7401043634326 678.5533551826389 2312.56297479393  862.1406387140419 678.545213218278 -2352.898192166926  437.1485838538757 674.5587833651925 -4718.665258598702  150.6315796479906 -674.5533850686736 5230.687610619553  680.871350629351 -674.5656495580553 -3744.744975601145  473.9448923939941 -1323.521735611253 -3869.948629405775  704.1898350736574 -1297.268054346786 -2665.367651960308  482.8588265400007 -1854.424149842843 -2560.048099321783  680.3443679905134 -1740.372170961916 -1260.734470106806  426.902513815539 -2207.816647128855 -1070.898314339764  607.8542676621564 -1981.389846840179 270.8954770648454  319.2885218415622 -2358.814701274867 488.7459507900325  463.1210850709455 -2049.271306241197 1854.151259127448  166.8301160062441 -2296.355047413729 1971.668787249979  296.3766245901884 -1873.107637578395 3257.634273290408  -11.51616005562056 -2012.030478905786 3263.915495986843  710.2242198301047 -1609.866921825632 1564.732330541297  680.8715704433978 674.5659269435341 3744.745035537241  689.8864928615676 1305.826387157215 2756.728257743597  835.4705897774775 1251.309512796625 1247.717441171071  110.8657749501114 -1494.986246796288 4365.829387455072  405.98019340396 -1310.974712758358 4116.485348036606  473.8946972549913 1248.038928734285 3989.650586586779  456.64045501466 1825.767055958804 2794.506825127392  953.6497268054883 -654.543485581061 815.2012061594532  840.822401680561 -1352.615729236397 94.40395271627052  867.6571332310424 -679.1586219209489 -2289.85533111186  150.6312691415162 674.5542870501565 -5230.687923334425  674.0942177335027 657.6435278817396 -3796.050404518674  684.6068489935565 1298.798761431267 -2812.052324221977  207.1727718113623 -2227.834529066298 -2220.637563359478  -144.9416291232367 -2323.633607889184 1866.55564875747  202.1918552722618 -1357.490097101812 -4482.600095234893  829.7617118105215 1266.228592717194 -1289.42037781247  620.5044856936182 1829.250749507404 -1552.022945906784  440.5897720696485 1780.286329463351 -3006.412104289575  347.8504691572508 2217.132960793163 -1673.259466853963  153.6761652685183 2081.896814453366 -2925.525150913793  44.98710218614816 2400.308103723288 -1518.383266820937  -157.5375795855137 2142.043245590834 -2700.544516050945  -259.9511515252963 2357.37338514065 -1145.128399052282  -458.1273696714566 2013.292544348028 -2069.860712263191  -49.99851243228548 2496.561533789204 101.4008594824834  -319.3807149194359 -1934.210566032039 3009.641463460261  -441.1579450286159 -2139.00311694322 1489.959952703073  -537.9031894854839 2092.220790311721 -559.3532539949846  -710.5420618303648 1636.586967201112 -1419.494245351581  -756.8679547240048 1632.956548529118 127.026856617418  -887.8278374562226 1077.390197246524 -887.3001321296774  -899.9965392729914 1022.655110373798 827.9028671149104  -788.732496877388 1021.169587985485 -2526.638222882696  -727.8318242314092 1511.06057594855 1781.763750741571  -939.2600421155634 446.627496232561 -1611.339869127865  -831.4224391664326 840.6782779138939 2432.668182337892  -799.5175857761068 286.715095526598 -3242.559991912104  -897.8045960242046 -324.3751338335404 -2314.371054802126  -618.5205749825407 1267.227969993345 3302.2219922617  -138.127120693171 -1035.837951522732 4947.599656727571  -602.4830056420758 -1654.162515489292 2454.958971676634  -718.4498427259675 -439.4108589764926 -3701.371512512892  -776.1955871987327 -1031.34388406228 -2622.272867160296  -960.8181072978458 283.446297751675 1390.610163403215  -334.2963808939206 1667.350045863631 -3662.528519165458  -684.1200410108389 541.1196674539682 3830.674814495783  215.0617286608031 1684.786068648839 3887.489378358012  -925.7650610053141 -844.8729187232809 -932.1406801173861  -582.0824293710385 175.5032078812656 -4455.372494726344  -453.4956858445372 964.2212295669455 4419.06290101644  -559.3449466336083 -1109.477137407709 -3850.642567339187  -585.6870219042206 -1651.953386042421 -2581.825861128428  -493.6006795535422 1860.234721479554 2476.31471845108  -252.033311010724 -2414.055317055194 353.8680017969541  -477.5976309911842 162.3487748294309 4818.829557396334  -705.6944893407003 -234.5501787916161 3862.357541447055  -338.0634268647615 -1656.675909260538 -3675.486297159313  -339.1874498186643 -2112.02275230117 -2276.354693087324  -291.3075119141146 -1049.055243257027 -4728.169539345977  507.0244505011662 2153.776861419178 -155.1529342852353  -681.8547657319689 -1774.2806638722 974.9457413117286  -821.0059617622393 -1198.274969095738 1705.942396296404  179.0841805903156 2169.170022146977 2551.00483853315  -64.64551299239483 1956.355413878336 3405.871081979057  -22.39474326205562 1474.124125341176 4440.366638383652  -270.8904559925542 622.8127028922671 5113.861316096995  -451.7628696893419 -1352.767688452863 3901.133596481493  235.7942067432375 1647.109721593149 -3929.037675638438  -560.5008023012755 -1997.292145993044 -1200.282568780537  -74.05118559219399 1263.56732042089 -4728.194063881389  -164.0905169468282 541.7711845347397 -5292.787939144228  -111.2718977097176 2335.256006532864 1866.261499334096  -211.2767136171888 -383.4612806090887 5309.11414685641  -72.26237328486368 -2048.634857528092 -3127.287836969424  -456.5041935367819 -616.2454456139021 4701.790379918204  -703.7618696055559 -992.0993954169846 3240.878190431415  -876.1406346858531 -476.8577439687681 2434.671586998513  -958.6234383015278 -619.057821284008 771.698502702534  -995.6740484476711 -80.52111719515702 -477.7488462205562  -384.0677668851794 1073.575297981325 -4495.406971017092  -582.5102555034581 1187.513046557674 -3627.653813015155  -85.04044777750697 -2353.011286979051 -1798.854891890885  -34.01757845525449 1847.130524820182 -3701.58886864398  398.7638916784246 2197.886432636743 1435.702314784021  861.8524777482837 -649.1532482677704 2395.833303868209  49.96576867860517 -707.917878253463 -5267.608102227798  158.0692774519161 -2438.492730589317 -846.7095881508295  -304.5087076828387 1596.881374919728 3886.239915936747  955.8955688594855 629.0173918764154 -832.6873105025403  638.9043598633406 1812.636327952175 1414.441594373569  753.703401097554 1642.847135982326 -62.85461656192324  -763.4746222796473 -1485.791790566908 -1390.427784217503  -331.3234269376093 2350.867079616452 427.9715769655163  -555.8588335449647 2027.373947406623 1005.764496522084  -54.23489116646228 -1528.379387167151 -4342.198593153906  -233.0230506752146 -278.9616247041239 -5313.138922520197  -491.2506293711257 -447.7146896345747 -4688.12017568191  231.023741502982 2429.130178448301 -280.8530167496829  27.07235960193705 -2483.719994318504 610.9100219656539  552.1882453992887 -1579.547802602839 2991.832597326318  957.5864074463459 637.0648953288569 739.0493961696716  437.394955266467 -669.7021074521394 4721.321517581894  -845.782567553128 -1332.405793065777 135.7881483467437  -178.9932627546885 -1649.384125124472 4014.18631026089  487.2203055116776 1209.945683049655 -3997.876310740634  -856.7707098208188 199.2655748148269 2802.012200818946  224.4894612212936 -1861.586305932523 -3457.307751198188  244.9419184723607 1200.464525612657 4632.425262184662  142.4602359098248 2418.233077814871 1155.385500372658  -621.9338664428201 1567.208258723191 -2581.074942820594  836.2853561085492 -1205.023730104781 -1437.275370694522  -15.30246275062855 650.2005183669394 5309.944134867508  757.4670715211466 -1172.784387040789 2497.309971253693  -970.8991690148458 595.817104918227 -125.0930130462391  -516.8880190718628 -2140.09868558536 53.03801582582202  -315.6623648734322 -2335.856234710807 -911.085211556394  897.1007294645592 1104.401014040464 -38.2655450965737  -223.2009724737718 1231.618040779118 4626.073042279058  277.7442614397742 1118.460301880983 -4675.576991783215  -337.1335622589667 183.6470410845427 -5162.097803048874  -365.6121402996224 2187.344136479381 1746.82842820451  850.5287051122972 -1120.758152093187 1512.406118218787  -68.115084208002 -2481.652321719631 -552.026086217815  -641.3123229517977 649.8989072221915 -3970.31974297121  -438.2959465933733 552.3079891705554 -4791.793351078602  -279.6334414587502 2011.230356555631 2882.289249449334  -703.1541183754921 -1772.159331738185 -307.6086990080945  1.143059005645599e-05 5.653788166374528e-05 -0.0001613027407713036  -318.8659503480895 -978.1858658405907 152.3451895724722  482.1625872926703 381.4728359323206 -25.14226585964683  -192.0825481812427 1028.171214856058 1211.636704947944  359.3939691512188 -728.857689052548 1102.310601873873  -234.1418028218199 106.6861656841396 -2448.922120400563  -495.9087393699264 194.1541762600172 2.025781954241196  94.7442753988903 1162.997661291186 -1052.10670189578  334.9408444642721 -573.1085830264535 -1647.647497596371  -260.53479207767 -108.8941275510956 2375.216617040291  249.8351270223655 865.3558907098326 1915.173477219447  -92.25687052552679 -987.5336167678895 -2080.385885241631  82.52102455698243 -1426.266297559128 10.17325083351702  198
[...]
<PointData  Vectors="Centrifugal"> 
<DataArray  type="Float64"  Name="Centrifugal"  NumberOfComponents="3" format="ascii">-1.9849675317366287e-12 7.4508922840144347e-12 0.0000000000000000e+00  -9.6827766793522449e-12 1.3589757751513921e-11 0.0000000000000000e+00  7.4711971476992550e-06 1.6474796876266656e-11 0.0000000000000000e+00  1.4211008602860969e-05 1.9611481835363076e-11 0.0000000000000000e+00  1.9559670675917323e-05 2.3223366745242351e-12 0.0000000000000000e+00  2.2993662654085600e-05 -1.6246895280152110e-12 0.0000000000000000e+00  2.4176933165989952e-05 -3.5086991093404880e-12 0.0000000000000000e+00  2.2993665701948679e-05 -3.1627258791179307e-12 0.0000000000000000e+00  1.9559673519599119e-05 8.7450227833402285e-12 0.0000000000000000e+00  1.4211018126463905e-05 1.0318909082066545e-11 0.0000000000000000e+00  7.4712075917680063e-06 1.0972667407731412e-11 0.0000000000000000e+00  9.4653407109252796e-06 -1.8220943343671782e-05 0.0000000000000000e+00  9.4036795794870168e-06 1.4153472660080070e-05 0.0000000000000000e+00  2.3012849680271504e-05 -1.6220524240086777e-05 0.0000000000000000e+00  1.6569175827834968e-05 -1.7699789955997315e-05 0.0000000000000000e+00  2.0931466360386449e-05 1.6405733569616963e-05 0.0000000000000000e+00  2.0844440170831041e-05 1.6405536856298504e-05 0.0000000000000000e+00  1.0569175815620263e-05 1.6309160742505897e-05 0.0000000000000000e+00  3.6419003285900297e-06 -1.6309032383847512e-05 0.0000000000000000e+00  1.6461793302777781e-05 -1.6309324004198690e-05 0.0000000000000000e+00  1.1458819442988624e-05 -3.1999473742636011e-05 0.0000000000000000e+00  1.7025576110098182e-05 -3.1364719301921818e-05 0.0000000000000000e+00  1.1674335605057669e-05 -4.4835370786293881e-05 0.0000000000000000e+00  1.6449050336072890e-05 -4.2077872070602957e-05 0.0000000000000000e+00  1.0321449230238334e-05 -5.3379518637074847e-05 0.0000000000000000e+00  1.4696417389808466e-05 -4.7905079447621004e-05 0.0000000000000000e+00  7.7196080611766835e-06 -5.7030275897770512e-05 0.0000000000000000e+00  1.1197125166372858e-05 -4.9546288421158013e-05 0.0000000000000000e+00  4.0335401801728575e-06 -5.5520161155853009e-05 0.0000000000000000e+00  7.1656554629621713e-06 -4.5287095583642538e-05 0.0000000000000000e+00  -2.7843235710605267e-07 -4.8645905713079289e-05 0.0000000000000000e+00  1.7171472002470216e-05 -3.8922580078668427e-05 0.0000000000000000e+00  1.6461798529426299e-05 1.6309330599758164e-05 0.0000000000000000e+00  1.6679756298738768e-05 3.1571638911094772e-05 0.0000000000000000e+00  2.0199622713827424e-05 3.0253552099197529e-05 0.0000000000000000e+00  2.6804609358989127e-06 -3.6145064022196629e-05 0.0000000000000000e+00  9.8156003389906930e-06 -3.1696119229469826e-05 0.0000000000000000e+00  1.1457605875391421e-05 3.0174487009337168e-05 0.0000000000000000e+00  1.1040439980763012e-05 4.4142514484323279e-05 0.0000000000000000e+00  2.3056906005059527e-05 -1.5825232930591656e-05 0.0000000000000000e+00  2.0329016285248545e-05 -3.2702883385992706e-05 0.0000000000000000e+00  2.0977815527329742e-05 -1.6420367427764946e-05 0.0000000000000000e+00  3.6418929454895998e-06 1.6309053830820043e-05 0.0000000000000000e+00  1.6297938797535024e-05 1.5900189167643887e-05 0.0000000000000000e+00  1.6552107505146390e-05 3.1401728636349898e-05 0.0000000000000000e+00  5.0089261200994835e-06 -5.3863506106461559e-05 0.0000000000000000e+00  -3.5043306636910264e-06 -5.6179688633134401e-05 0.0000000000000000e+00  4.8885005175847695e-06 -3.2820748393501042e-05 0.0000000000000000e+00  2.0061596093481551e-05 3.0614258434977495e-05 0.0000000000000000e+00  1.5002268842870627e-05 4.4226736395449664e-05 0.0000000000000000e+00  1.0652374145459144e-05 4.3042904671504070e-05 0.0000000000000000e+00  8.4101656871204931e-06 5.3604766192829564e-05 0.0000000000000000e+00  3.7155103874817427e-06 5.0335098142614951e-05 0.0000000000000000e+00  1.0876769696519024e-06 5.8033486487813499e-05 0.0000000000000000e+00  -3.8088697270990229e-06 5.1789288305052163e-05 0.0000000000000000e+00  -6.2849768586860659e-06 5.6995430141451577e-05 0.0000000000000000e+00  -1.1076389584391523e-05 4.8676412283097852e-05 0.0000000000000000e+00  -1.2088405270602407e-06 6.0360652577152558e-05 0.0000000000000000e+00  -7.7218376509675246e-06 -4.6764411312352058e-05 0.0000000000000000e+00  -1.0666110455522610e-05 -5.1715779609558587e-05 0.0000000000000000e+00  -1.3005172239348381e-05 5.0584696923246010e-05 0.0000000000000000e+00  -1.7179156568892714e-05 3.9568604011843442e-05 0.0000000000000000e+00  -1.8299202966771318e-05 3.9480827841973996e-05 0.0000000000000000e+00  -2.1465493129514543e-05 2.6048614998174520e-05 0.0000000000000000e+00  -2.1759702726816512e-05 2.4725256566918062e-05 0.0000000000000000e+00  -1.9069610587321717e-05 2.4689343416012800e-05 0.0000000000000000e+00  -1.7597180890774125e-05 3.6533688603191135e-05 0.0000000000000000e+00  -2.2708998946905227e-05 1.0798342061468599e-05 0.0000000000000000e+00  -2.0101749105212898e-05 2.0325511630397394e-05 0.0000000000000000e+00  -1.9330368360175427e-05 6.9320589613375373e-06 0.0000000000000000e+00  -2.1706707646124006e-05 -7.8425843840942944e-06 0.0000000000000000e+00  -1.4954303851269828e-05 3.0638427308657724e-05 0.0000000000000000e+00  -3.3395732747091694e-06 -2.5043998222531240e-05 0.0000000000000000e+00  -1.4566554248175432e-05 -3.9993540760152634e-05 0.0000000000000000e+00  -1.7370349079710668e-05 -1.0623864395869179e-05 0.0000000000000000e+00  -1.8766498882801788e-05 -2.4935332971029141e-05 0.0000000000000000e+00  -2.3230220354086905e-05 6.8530262862767402e-06 0.0000000000000000e+00  -8.0824619416801522e-06 4.0312389114060800e-05 0.0000000000000000e+00  -1.6540338633662111e-05 1.3082931200989315e-05 0.0000000000000000e+00  5.1996620968851851e-06 4.0733950374591854e-05 0.0000000000000000e+00  -2.2382722772775122e-05 -2.0426925148199281e-05 0.0000000000000000e+00  -1.4073319836908040e-05 4.2432325234028876e-06 0.0000000000000000e+00  -1.0964408370199678e-05 2.3312480007653044e-05 0.0000000000000000e+00  -1.3523582750250728e-05 -2.6824405918202042e-05 0.0000000000000000e+00  -1.4160468600711360e-05 -3.9940129978982452e-05 0.0000000000000000e+00  -1.1934047158938629e-05 4.4975855489936238e-05 0.0000000000000000e+00  -6.0935430009197536e-06 -5.8365856825674675e-05 0.0000000000000000e+00  -1.1547134383811528e-05 3.9251912359521953e-06 0.0000000000000000e+00  -1.7061956102691886e-05 -5.6708418417877936e-06 0.0000000000000000e+00  -8.1735398219681825e-06 -4.0054315222598505e-05 0.0000000000000000e+00  -8.2007153327715812e-06 -5.1063464768480519e-05 0.0000000000000000e+00  -7.0430974893461756e-06 -2.5363558594131800e-05 0.0000000000000000e+00  1.2258600220893695e-05 5.2072969599907754e-05 0.0000000000000000e+00  -1.6485567976408377e-05 -4.2897694545318996e-05 0.0000000000000000e+00  -1.9849903576515496e-05 -2.8971309448243510e-05 0.0000000000000000e+00  4.3298133748004411e-06 5.2445145613758305e-05 0.0000000000000000e+00  -1.5629689488186871e-06 4.7299821071332393e-05 0.0000000000000000e+00  -5.4144967740837122e-07 3.5640669833151230e-05 0.0000000000000000e+00  -6.5494637028658858e-06 1.5058069619370363e-05 0.0000000000000000e+00  -1.0922512788490921e-05 -3.2706568620026080e-05 0.0000000000000000e+00  5.7009223469530072e-06 3.9823029865922426e-05 0.0000000000000000e+00  -1.3551527159047203e-05 -4.8289558791604952e-05 0.0000000000000000e+00  -1.7903749764511968e-06 3.0549929453273957e-05 0.0000000000000000e+00  -3.9673041449889058e-06 1.3098687024662015e-05 0.0000000000000000e+00  -2.6902796720575028e-06 5.6460689355605725e-05 0.0000000000000000e+00  -5.1081502883759866e-06 -9.2711451338189032e-06 0.0000000000000000e+00  -1.7471257643605993e-06 -4.9530907784075905e-05 0.0000000000000000e+00  -1.1037146887750228e-05 -1.4899289106644341e-05 0.0000000000000000e+00  -1.7015229445541758e-05 -2.3986500822197878e-05 0.0000000000000000e+00  -2.1182926040416917e-05 -1.1529235188369836e-05 0.0000000000000000e+00  -2.3177158371150611e-05 -1.4967277747081479e-05 0.0000000000000000e+00  -2.4072951919436426e-05 -1.9468001774190626e-06 0.0000000000000000e+00  -9.2858119545330514e-06 2.5956391142753136e-05 0.0000000000000000e+00  -1.4083662947320296e-05 2.8711119670377252e-05 0.0000000000000000e+00  -2.0560679598917123e-06 -5.6889967663094249e-05 0.0000000000000000e+00  -8.2246109024688316e-07 4.4659036085358504e-05 0.0000000000000000e+00  9.6411266566404281e-06 5.3139432018519863e-05 0.0000000000000000e+00  2.0837473041512849e-05 -1.5694912157730197e-05 0.0000000000000000e+00  1.2080492187167997e-06 -1.7115703603588751e-05 0.0000000000000000e+00  3.8217247015962103e-06 -5.8956693562092045e-05 0.0000000000000000e+00  -7.3622695629691896e-06 3.8608632483198004e-05 0.0000000000000000e+00  2.3111205010138094e-05 1.5208075654074843e-05 0.0000000000000000e+00  1.5447132595410905e-05 4.3825040502925078e-05 0.0000000000000000e+00  1.8222691794015918e-05 3.9719957668047955e-05 0.0000000000000000e+00  -1.8458936281276635e-05 -3.5922750995961191e-05 0.0000000000000000e+00  -8.0105823580630393e-06 5.6838122282275418e-05 0.0000000000000000e+00  -1.3439295571505693e-05 4.9016861939346909e-05 0.0000000000000000e+00  -1.3112658524986143e-06 -3.6952427466449920e-05 0.0000000000000000e+00  -5.6339230287377620e-06 -6.7446022497214143e-06 0.0000000000000000e+00  -1.1877230132120078e-05 -1.0824632614800017e-05 0.0000000000000000e+00  5.5855834479156800e-06 5.8730329656415862e-05 0.0000000000000000e+00  6.5454273156634618e-07 -6.0050176276109862e-05 0.0000000000000000e+00  1.3350550739723355e-05 -3.8189544814804751e-05 0.0000000000000000e+00  2.3152085341498663e-05 1.5402644130039331e-05 0.0000000000000000e+00  1.0575132363612656e-05 -1.6191738808577004e-05 0.0000000000000000e+00  -2.0448941028430592e-05 -3.2214257164810578e-05 0.0000000000000000e+00  -4.3276155906602714e-06 -3.9878020222041909e-05 0.0000000000000000e+00  1.1779786390547214e-05 2.9253486929493352e-05 0.0000000000000000e+00  -2.0714608820739711e-05 4.8177464203877318e-06 0.0000000000000000e+00  5.4276012871724225e-06 -4.5008539546899617e-05 0.0000000000000000e+00  5.9220916585618095e-06 2.9024259211656634e-05 0.0000000000000000e+00  3.4443365857264013e-06 5.8466866552704178e-05 0.0000000000000000e+00  -1.5036828250741693e-05 3.7891203236881480e-05 0.0000000000000000e+00  2.0219321921815632e-05 -2.9134477158134272e-05 0.0000000000000000e+00  -3.6997585467751813e-07 1.5720239806596152e-05 0.0000000000000000e+00  1.8313689021298017e-05 -2.8355012729552847e-05 0.0000000000000000e+00  -2.3473955393799430e-05 1.4405375019383306e-05 0.0000000000000000e+00  -1.2497077051106563e-05 -5.1742265015555142e-05 0.0000000000000000e+00  -7.6319365116351143e-06 -5.6475197820311249e-05 0.0000000000000000e+00  2.1689688815607690e-05 2.6701668898789308e-05 0.0000000000000000e+00  -5.3964491994075634e-06 2.9777474080650814e-05 0.0000000000000000e+00  6.7151715960843945e-06 2.7041600452120978e-05 0.0000000000000000e+00  -8.1510587787388888e-06 4.4401306885800384e-06 0.0000000000000000e+00  -8.8395991577318359e-06 5.2884546560012347e-05 0.0000000000000000e+00  2.0563691309893763e-05 -2.7097145066286899e-05 0.0000000000000000e+00  -1.6468544666119291e-06 -6.0000184942627227e-05 0.0000000000000000e+00  -1.5505352904297298e-05 1.5712943952277886e-05 0.0000000000000000e+00  -1.0596916140678766e-05 1.3353439536794016e-05 0.0000000000000000e+00  -6.7608465813147193e-06 4.8626557925145393e-05 0.0000000000000000e+00  -1.7000533929831256e-05 -4.2846405129016993e-05 0.0000000000000000e+00  2.7179519115559831e-13 1.3443373462144733e-12 0.0000000000000000e+00  -7.7093946732177848e-06 -2.3650098536277298e-05 0.0000000000000000e+00  1.1657506738813207e-05 9.2230632489861212e-06 0.0000000000000000e+00  -4.6440836626876717e-06 2.4858620901694654e-05 0.0000000000000000e+00  8.6892627354843063e-06 -1.7621964462468215e-05 0.0000000000000000e+00  -5.6609732369400045e-06 2.5794062559086120e-06 0.0000000000000000e+00  -1.1989855095673544e-05 4.6941645539745982e-06 0.0000000000000000e+00  2.2906835434142288e-06 2.8118388826623338e-05 0.0000000000000000e+00  8.0980463508148821e-06 -1.3856339128734435e-05 0.0000000000000000e+00  -6.2990909705956357e-06 -2.6327892261644414e-06 0.0000000000000000e+00  6.0403989684995981e-06 2.0922152538933240e-05 0.0000000000000000e+00  -2.2305441977122063e-06 -2.3876106459082235e-05 0.0000000000000000e+00  1.9951553111784243e-06 -3.4483568645318165e-05 0.0000000000000000e+00  4.8093880802130703e-06 9.1575044732797127e-06 0.0000000000000000e+00  -1.8996392705582364e-06 -2.6853785014389080e-05 0.0000000000000000e+00  4.2163792849050469e-06 -3.2769396071760640e-06 0.0000000000000000e+00  -8.1581519128531199e-06 2.6272139595692866e-05 0.0000000000000000e+00  -1.2009522470858159e-05 -1.2548618961696434e-05 0.0000000000000000e+00  1.2228863390951639e-05 1.5749850240739738e-06 0.0000000000000000e+00  -1.6319988929701888e-06 1.6291708195937766e-05 0.0000000000000000e+00  2.5102877972339675e-06 3.6904286001249204e-05 0.0000000000000000e+00  1.0366461644024930e-05 2.1832243064481740e-05 0.0000000000000000e+00  1.0365064445916705e-05 3.0656969927260211e-05 0.0000000000000000e+00  -1.1906643033473053e-05 1.3872847750202293e-05 0.0000000000000000e+00  1.4634094102997261e-05 -1.1507152443231681e-05 0.0000000000000000e+00  -2.9216148577227314e-06 2.4263974952120089e-05 0.0000000000000000e+00  -1.4075023947395070e-05 -1.2751222125056133e-05 0.0000000000000000e+00  1.3758723134292688e-05 2.1840300966652161e-06 0.0000000000000000e+00  1.0191481974742265e-05 -3.0165442896392026e-05 0.0000000000000000e+00  -1.3096343858600506e-05 1.1134667635101055e-05 0.0000000000000000e+00  3.0276749099256581e-06 -1.1851407288777923e-05 0.0000000000000000e+00  -4.7186504889846404e-06 -3.7902510431605102e-05 0.0000000000000000e+00  -4.5734499169184882e-06 -3.9907106358318883e-05 0.0000000000000000e+00  5.4400816227663779e-06 -3.5185598693255266e-05 0.0000000000000000e+00  -1.1889453078807934e-05 3.0040489351354740e-05 0.0000000000000000e+00  4.5881589553228032e-06 -3.4273888048983791e-05 0.0000000000000000e+00  -3.2818406296381525e-06 4.0440178325725537e-05 0.0000000000000000e+00  -7.9508213790913075e-06 -1.5266805817442625e-05 0.0000000000000000e+00  1.3716226243330557e-05 1.9632204914177482e-05 0.0000000000000000e+00  1.7277281659569376e-06 1.8131630606062841e-05 0.0000000000000000e+00  5.1368077461257561e-06 9.7634229125399179e-06 0.0000000000000000e+00  </DataArray> 
</PointData> 
</Piece>
</UnstructuredGrid>
</VTKFile>