<?xml version="1.0"?>
<VTKFile type="UnstructuredGrid"  version="0.1"  >
<UnstructuredGrid>
<Piece  NumberOfPoints="201" NumberOfCells="657">
<Points>
<DataArray  type="Float64"  NumberOfComponents="3"  format="ascii">-8.464852058660805e-05 0.0003177429498767776 5499.871091152405  -0.0004129209201976709 0.0005795337082750446 -5499.871327479656  309.0139524645577 0.0007025659885689896 -5230.684348635562  587.7772119870198 0.0008363297986088344 -4449.476141975078  809.0014656152114 9.903570092485831e-05 -3232.725128348041  951.0336012459834 -6.928480815955362e-05 -1699.540342442458  999.9744339420918 -0.0001496282156032733 -0.0001278341477580072  951.0337312219133 -0.0001348739764007021 1699.54035726504  809.0015868839243 0.0003729310388391636 3232.724756083078  587.7776181203175 0.000440049322478671 4449.47626255465  309.0143978509126 0.0004679287233480882 5230.684322386855  391.493142144555 -753.6316987285578 -4781.59392308832  388.9427915787604 585.3981078541109 4900.413694750893  951.8272284073889 -670.893526568177 -815.3044603228841  685.3126387702684 -732.0766828939121 3667.161706486097  865.7398699339254 678.5537872785053 2312.562006981741  862.140403977025 678.5456404401027 -2352.897212448675  437.148526271811 674.5590032740507 -4718.663616133368  150.6315660110231 -674.5535294299968 5230.685886173384  680.8712115160515 -674.565965557713 -3744.743546525508  473.9448461738665 -1323.522304877314 -3869.947219326081  704.1897173850771 -1297.268805724411 -2665.366593088299  482.8588073350385 -1854.425188876925 -2560.047125209144  680.3442928008437 -1740.373324408168 -1260.733960326728  426.9025224491303 -2207.81806409153 -1070.897900062073  607.8542336597253 -1981.391187750405 270.8953669237945  319.2885431360808 -2358.816227679134 488.7457619196591  463.121085090785 -2049.272550193112 1854.150543898792  166.830130032653 -2296.35637854388 1971.668053339571  296.3766267708544 -1873.1085309631 3257.63309122596  -11.51615931865164 -2012.031421499266 3263.914327695666  710.2241246154807 -1609.86797261889 1564.73169328958  680.8714344063047 674.5662468250814 3744.743607300299  689.8863852398276 1305.827130206456 2756.727169165384  835.4704067406494 1251.310371346602 1247.716914931628  110.8657735697677 -1494.986765054033 4365.827884788007  405.9801602507391 -1310.975228069316 4116.483875704373  473.8946500890796 1248.03945263218 3989.649140443388  456.6404389608477 1825.768041738766 2794.505771381084  953.6494267358307 -654.5439607949775 815.2008491822007  840.8222198936937 -1352.616695268519 94.40391033888845  867.6568939423931 -679.1590539536812 -2289.854375906956  150.6312511591897 674.5544440342252 -5230.686203264841  674.0940839819997 657.6438329210118 -3796.048960766544  684.6067424732597 1298.799491327411 -2812.051219912593  207.1727837038934 -2227.835789440496 -2220.636741653209  -144.9416399879964 -2323.634967363329 1866.554953561026  202.1918437238777 -1357.490544552739 -4482.59855381965  829.7615300603264 1266.229458493636 -1289.419836850382  620.5044379299228 1829.251917376884 -1552.022327547852  440.5897533546827 1780.287247419455 -3006.410985437734  347.8504830527087 2217.134305049009 -1673.258829535163  153.6761694589353 2081.897868367334 -2925.524090524563  44.98710790533904 2400.309542765415 -1518.382699786322  -157.5375883671468 2142.044374453086 -2700.543531038787  -259.9511725682964 2357.374851649046 -1145.127963929855  -458.1273649579378 2013.293733945273 -2069.85992041697  -49.99851736624588 2496.563125448685 101.4008188330975  -319.3807156162774 -1934.211540623575 3009.640357894001  -441.1579511663559 -2139.004451771836 1489.959376537942  -537.9031790064353 2092.222176073461 -559.3530331980377  -710.5419690275395 1636.588047284209 -1419.493665023922  -756.8678406171928 1632.957684733882 127.026803851333  -887.8276072047425 1077.390956634251 -887.2997535337438  -899.996294620342 1022.655837562307 827.9025103902093  -788.7323263794419 1021.17020616383 -2526.637196475255  -727.8317130048351 1511.061550435115 1781.76302387305  -939.2597415698265 446.6278049734068 -1611.339177314163  -831.4222321578532 840.6787994597494 2432.667177565873  -799.5173826075844 286.7152575305108 -3242.558693781049  -897.8043269176334 -324.3753442679503 -2314.37008043683  -618.5204896210854 1267.228611917354 3302.220728608246  -138.1271101681556 -1035.83822088614 4947.597996677865  -602.4829463974424 -1654.16347815959 2454.958012835496  -718.4496841413688 -439.4110691235217 -3701.370083388895  -776.1954223393104 -1031.344495970624 -2622.271807957771  -960.8177863908334 283.446502098933 1390.609558074867  -334.29637146896 1667.350784314134 -3662.527200347229  -684.1199014417647 541.1199208283093 3830.67335734374  215.061724288522 1684.786763359032 3887.488005623059  -925.7647894137277 -844.873529412443 -932.1402789049189  -582.0823285503826 175.5032785656688 -4455.370879493109  -453.4956295901956 964.2215892038273 4419.061332468807  -559.3448757270344 -1109.47762119168 -3850.641141708219  -585.686969722705 -1651.954330577782 -2581.824862600759  -493.6006585408284 1860.235780879201 2476.313774789907  -252.0333324037165 -2414.056873735251 353.8678666231241  -477.5975590842458 162.3488298532733 4818.827871444445  -705.694330888613 -234.5502757290762 3862.356060886114  -338.0634173265136 -1656.676633886014 -3675.484973344367  -339.1874609577172 -2112.02395391935 -2276.353841406506  -291.3074908678124 -1049.055552204905 -4728.167923896625  507.0244504399868 2153.778290711595 -155.1528732643973  -681.8546923059981 -1774.281860032766 974.9453440779221  -821.0057829551671 -1198.275765975794 1705.941684297119  179.0841894465913 2169.171193627134 2551.003901689997  -64.64551487820971 1956.356319300956 3405.869866695346  -22.39474184748721 1474.12462840596 4440.365121236366  -270.8904261909046 622.8128728161158 5113.859604263771  -451.762826120137 -1352.768261326757 3901.132180954094  235.7941994393609 1647.110395189439 -3929.036288335313  -560.5007779130337 -1997.293452379535 -1200.282095347897  -74.05118499266676 1263.567695713652 -4728.192473120527  -164.0905061070486 541.7713067445935 -5292.78620201205  -111.2719071821801 2335.257373023482 1866.260803542201  -211.2766911749596 -383.4613683771419 5309.112395585303  -72.26237772715496 -2048.635852235277 -3127.28671482407  -456.5041294256194 -616.2456307711415 4701.78873204844  -703.7617349617227 -992.0999108216329 3240.876927272645  -876.1403821180189 -476.8580413562734 2434.670569090233  -958.6231279472531 -619.0582746419497 771.698166252287  -995.6736957194076 -80.5211789477558 -477.7486354572419  -384.067732903052 1073.57567256929 -4495.40539897107  -582.5101781244655 1187.51360002252 -3627.652451581403  -85.04045635051631 -2353.012673264659 -1798.854224847353  -34.01757930885045 1847.131313423035 -3701.587566194155  398.7639044220721 2197.887798270088 1435.701762041279  861.8522467959933 -649.1536581876611 2395.832303766451  49.96576119576941 -707.9180192695803 -5267.606380979595  158.0692921137812 -2438.494274245724 -846.7092689198086  -304.5086960300601 1596.882044658032 3886.238529742888  955.8952658000782 629.0178430103125 -832.6869471100656  638.9043053248171 1812.637501856937 1414.441026440777  753.703289582089 1642.848278320149 -62.8545895897132  -763.474494392255 -1485.792790352827 -1390.427211701645  -331.3234487332482 2350.868596682422 427.9714103012893  -555.8588174248976 2027.375274400441 1005.764096922525  -54.23489119548673 -1528.379915859911 -4342.197101937181  -233.0230294376138 -278.9616788354804 -5313.13717126952  -491.2505597783086 -447.7148269279685 -4688.118524637499  231.0237628867251 2429.131739438824 -280.8529112136904  27.07236405716075 -2483.721570611738 610.9097909361407  552.1881966291246 -1579.548635320233 2991.831459681686  957.5861034706936 637.0653570209432 739.0490721183648  437.394901354596 -669.702309630935 4721.319870481017  -845.7823797916624 -1332.406753115328 135.7880899407528  -178.9932581458847 -1649.38476756047 4014.184906700598  487.2202518331814 1209.946185516638 -3997.87485820349  -856.7704652445113 199.265698199998 2802.011045826809  224.4894611099687 -1861.587152578398 -3457.30651378958  244.9419037365037 1200.464913440486 4632.423675958858  142.460250710062 2418.234572214547 1155.385065236322  -621.933800899238 1567.209156268822 -2581.073938581193  836.2851671791774 -1205.02455077735 -1437.274769352607  -15.30246059840823 650.2006748645617 5309.942397940061  757.4669263205313 -1172.785090772331 2497.308962847114  -970.898853683488 595.8175424709272 -125.0929581301643  -516.8880162530958 -2140.100116319068 53.03799469738059  -315.6623869016352 -2335.857726188213 -911.0848650070917  897.1004979329703 1104.401808597662 -38.2655289672936  -223.200958678955 1231.61843777225 4626.071462521788  277.7442390545717 1118.460653339718 -4675.575392940187  -337.1335251222424 183.647098758328 -5162.096070044333  -365.6121511785838 2187.345458324468 1746.827761795724  850.5285038595413 -1120.758914186426 1512.405479373423  -68.11509146985743 -2481.653901920227 -552.0258785263733  -641.3122088326681 649.8991911355639 -3970.318257061411  -438.2958916379345 552.3081612915532 -4791.79168845085  -279.6334444930947 2011.231397260642 2882.288192487306  -703.1540393874865 -1772.160557269041 -307.6085746373064  1.159051469282031e-05 5.732925506500053e-05 -0.0001635598860148461  -318.8658544714053 -978.1866426494486 152.3451242579287  482.1624112718534 381.4731406176414 -25.14225675047244  -192.0824929687176 1028.171993195825 1211.636182884915  359.3938535583998 -728.8582535337963 1102.310121748365  -234.1417276311067 106.6862357075356 -2448.921090373093  -495.9085522955899 194.1543297694752 2.025780298510345  94.74424988120278 1162.998540741266 -1052.106253320342  334.9407345951785 -573.1090157037435 -1647.646790067296  -260.5347038154717 -108.8942010715552 2375.215612768204  249.8350562787912 865.3565130833366 1915.17266682756  -92.25684616606233 -987.5343106665224 -2080.385017937031  82.52100553464221 -1426.267395275795 10.17324537259366  198.91958
[...]
<PointData  Vectors="Coriolis"> 
<DataArray  type="Float64"  Name="Coriolis"  NumberOfComponents="3" format="ascii">3.0686611030864213e-15 8.1721432698607322e-16 0.0000000000000000e+00  5.5962009176199360e-15 3.9873570791242050e-15 0.0000000000000000e+00  6.7843057248289481e-15 2.9374548890819934e-14 0.0000000000000000e+00  8.0760908709016874e-15 7.7642296933484758e-14 0.0000000000000000e+00  9.5625812368788768e-16 1.4995592379884607e-13 0.0000000000000000e+00  -6.6914930378006197e-16 2.2128340969359736e-13 0.0000000000000000e+00  -1.4449851460853532e-15 2.4688367724694400e-13 0.0000000000000000e+00  -1.3023146578242735e-15 2.2002817941987012e-13 0.0000000000000000e+00  3.6015282161522942e-15 1.4878474362569138e-13 0.0000000000000000e+00  4.2497161657541761e-15 7.3720287777992831e-14 0.0000000000000000e+00  4.5189172297996532e-15 2.5073513089209231e-14 0.0000000000000000e+00  -1.5488598619070351e-13 3.2818559365745059e-14 0.0000000000000000e+00  1.2229906091617363e-13 3.3517371729995365e-14 0.0000000000000000e+00  -3.4379410360844177e-13 2.0907502076918108e-13 0.0000000000000000e+00  -2.3828650772059060e-13 9.4311768279115625e-14 0.0000000000000000e+00  3.0233317482998026e-13 1.6401511767476105e-13 0.0000000000000000e+00  2.9892258572730765e-13 1.6423053305729652e-13 0.0000000000000000e+00  1.5386538949386411e-13 4.0287411797656348e-14 0.0000000000000000e+00  -1.0100558532076060e-13 9.5410106781648215e-15 0.0000000000000000e+00  -2.2109999814498892e-13 9.7329431037924666e-14 0.0000000000000000e+00  -3.9830539302511954e-13 3.2336894395996324e-14 0.0000000000000000e+00  -5.2572935364390291e-13 8.2337548371924610e-14 0.0000000000000000e+00  -7.2699757809387152e-13 1.3433822523657217e-14 0.0000000000000000e+00  -8.0705423431428442e-13 5.2601147583938419e-14 0.0000000000000000e+00  -9.9143202118373752e-13 -6.0446122940766570e-15 0.0000000000000000e+00  -9.3822101792014054e-13 2.3784011040588169e-14 0.0000000000000000e+00  -1.0680071692668742e-12 -1.4902210129175574e-14 0.0000000000000000e+00  -8.7037705678935315e-13 -1.7770333132573815e-17 0.0000000000000000e+00  -9.3137337586608297e-13 -9.8150938015562893e-15 0.0000000000000000e+00  -6.2508636678586856e-13 -1.5272635071397503e-15 0.0000000000000000e+00  -6.5951658042051692e-13 -5.1573359095616839e-16 0.0000000000000000e+00  -7.3522871353070617e-13 6.6611706163658562e-14 0.0000000000000000e+00  2.2381633227492563e-13 9.5176853991802842e-14 0.0000000000000000e+00  5.1990184800097920e-13 7.5294203264337742e-14 0.0000000000000000e+00  6.0071992170301453e-13 1.2805638560534189e-13 0.0000000000000000e+00  -3.6261392620861286e-13 9.6541297152897484e-16 0.0000000000000000e+00  -3.6055281804791675e-13 2.3194701039126390e-14 0.0000000000000000e+00  3.6656204334845023e-13 3.2998396933885463e-14 0.0000000000000000e+00  6.8973572314465762e-13 1.1229217695652170e-14 0.0000000000000000e+00  -3.3250390582531039e-13 2.0993923501495219e-13 0.0000000000000000e+00  -6.7592494411014612e-13 1.2718128562043888e-13 0.0000000000000000e+00  -3.0228897857895180e-13 1.6741506876727450e-13 0.0000000000000000e+00  1.0983780666873518e-13 1.2581603798270131e-14 0.0000000000000000e+00  2.1343078782127329e-13 9.3578125325192289e-14 0.0000000000000000e+00  5.1069836880751359e-13 7.4523952865798221e-14 0.0000000000000000e+00  -8.8186620657002508e-13 -8.3221053081165795e-15 0.0000000000000000e+00  -9.5120553058167844e-13 7.6027609352299383e-15 0.0000000000000000e+00  -3.1307211859297918e-13 8.0797694759847887e-15 0.0000000000000000e+00  6.0577592264711649e-13 1.2715634474572671e-13 0.0000000000000000e+00  8.1714477770914466e-13 3.3412932872047445e-14 0.0000000000000000e+00  6.4227969106616403e-13 1.3091723592318705e-14 0.0000000000000000e+00  9.4055830456272948e-13 -9.7250794887591146e-15 0.0000000000000000e+00  7.3740689246617834e-13 -2.9326348218419094e-15 0.0000000000000000e+00  1.0068789264253595e-12 -4.0018354147369460e-15 0.0000000000000000e+00  7.8984756337631023e-13 6.1452673512211719e-15 0.0000000000000000e+00  1.0260977148137025e-12 1.4725432223408185e-14 0.0000000000000000e+00  8.3234533854704407e-13 -3.2941914281412951e-15 0.0000000000000000e+00  1.1136651514639395e-12 3.4526007844349097e-15 0.0000000000000000e+00  -6.8190609368433803e-13 4.8918901332391665e-16 0.0000000000000000e+00  -9.3396300251446458e-13 4.2982122442161465e-15 0.0000000000000000e+00  9.6960231513163569e-13 -7.3262994986617141e-15 0.0000000000000000e+00  7.5572263130088427e-13 -6.4924064007293937e-14 0.0000000000000000e+00  7.9499228410126283e-13 -7.9828619541159731e-14 0.0000000000000000e+00  5.3133765495955563e-13 -1.6109022934698578e-13 0.0000000000000000e+00  5.0880829795688323e-13 -1.7116611710477658e-13 0.0000000000000000e+00  4.3253200293372218e-13 -1.1928536119673397e-13 0.0000000000000000e+00  6.8183762008884704e-13 -7.7815010822306707e-14 0.0000000000000000e+00  2.1602341854717104e-13 -2.1027294918110761e-13 0.0000000000000000e+00  3.6492014121696693e-13 -1.4483033735929899e-13 0.0000000000000000e+00  1.1335176921646069e-13 -1.4214477935772312e-13 0.0000000000000000e+00  -1.4723894771630179e-13 -1.8827718815949042e-13 0.0000000000000000e+00  4.4914471361701486e-13 -5.9721042494199571e-14 0.0000000000000000e+00  -1.8846678523981222e-13 -7.3640391811693804e-15 0.0000000000000000e+00  -6.7356739697208733e-13 -4.1446951314646187e-14 0.0000000000000000e+00  -1.4703668292393328e-13 -1.1095221553924260e-13 0.0000000000000000e+00  -4.2814501722047883e-13 -1.1534047035330500e-13 0.0000000000000000e+00  1.4298022524808617e-13 -2.2451884588045009e-13 0.0000000000000000e+00  5.1668054607378469e-13 -6.5928383278754804e-15 0.0000000000000000e+00  1.7728219756533686e-13 -9.7648541359228068e-14 0.0000000000000000e+00  4.8607609088024222e-13 3.0582387196398830e-15 0.0000000000000000e+00  -4.2729489816179121e-13 -1.9001425587942967e-13 0.0000000000000000e+00  4.9456357007851171e-14 -7.0538717092538426e-14 0.0000000000000000e+00  2.5163089094097120e-13 -3.9358130654616518e-14 0.0000000000000000e+00  -3.3849535052510405e-13 -4.9608364726821950e-14 0.0000000000000000e+00  -6.6087867385418395e-13 -3.6505267424022847e-14 0.0000000000000000e+00  7.4124729398996502e-13 -1.4698461262318408e-14 0.0000000000000000e+00  -1.0891906715084859e-12 1.4970394005514526e-14 0.0000000000000000e+00  3.8499395609622981e-14 -5.0309983082638966e-14 0.0000000000000000e+00  -6.7825280137965188e-14 -1.1086023224098243e-13 0.0000000000000000e+00  -5.0700775629868430e-13 -6.6721035649459408e-15 0.0000000000000000e+00  -8.4075560185670102e-13 7.7961265729412874e-15 0.0000000000000000e+00  -2.1616437489444310e-13 -1.4724816980277991e-14 0.0000000000000000e+00  1.0000602890219395e-12 3.7553144572863043e-17 0.0000000000000000e+00  -8.3694120895631641e-13 -5.1366795202012330e-14 0.0000000000000000e+00  -5.5756901682806438e-13 -1.2509777062243534e-13 0.0000000000000000e+00  8.1966745923423998e-13 -6.1977148426867287e-15 0.0000000000000000e+00  6.3350883573912779e-13 1.3195407186497391e-15 0.0000000000000000e+00  3.5198434569936846e-13 -9.8985949712185220e-16 0.0000000000000000e+00  1.1889202935993092e-13 -2.0851164499887909e-14 0.0000000000000000e+00  -4.0082908491567385e-13 -3.0482291329832656e-14 0.0000000000000000e+00  4.7130235906245222e-13 5.1096710133197435e-15 0.0000000000000000e+00  -9.1406382442464927e-13 -1.7058076698711457e-14 0.0000000000000000e+00  2.6258410619129126e-13 -4.1926728422824431e-16 0.0000000000000000e+00  8.5507025801085869e-14 -7.5840492216137909e-15 0.0000000000000000e+00  9.5611499500791220e-13 6.6282881176930155e-15 0.0000000000000000e+00  -6.1408453132213928e-14 -1.5702136044199831e-14 0.0000000000000000e+00  -6.9598061484770153e-13 3.1085722079099579e-15 0.0000000000000000e+00  -1.2955023696072837e-13 -4.4855495975708291e-14 0.0000000000000000e+00  -3.6062096457124994e-13 -9.4201509963529217e-14 0.0000000000000000e+00  -2.0807876873013737e-13 -1.7670627071929911e-13 0.0000000000000000e+00  -3.1721156801180266e-13 -2.1713490267615938e-13 0.0000000000000000e+00  -4.3208082949679930e-14 -2.4678236853778732e-13 0.0000000000000000e+00  2.6209121484701300e-13 -2.3775092168372185e-14 0.0000000000000000e+00  3.8724999307937254e-13 -5.4136360675846492e-14 0.0000000000000000e+00  -9.6996551481070702e-13 5.9989974290417710e-15 0.0000000000000000e+00  5.5177110994045067e-13 5.9750427841854645e-16 0.0000000000000000e+00  9.5551677156814306e-13 -8.9199110184014949e-15 0.0000000000000000e+00  -2.8681640699241861e-13 1.6158237334788377e-13 0.0000000000000000e+00  -9.8665797179941233e-14 5.2355704894814864e-15 0.0000000000000000e+00  -1.0800775350126838e-12 -1.0259822054498561e-14 0.0000000000000000e+00  4.6860364044117610e-13 -8.1521254812974768e-15 0.0000000000000000e+00  3.1565528446086204e-13 2.1203111002374728e-13 0.0000000000000000e+00  8.2136814854400047e-13 3.8152651141615511e-14 0.0000000000000000e+00  7.9928353407508768e-13 7.8015527374168020e-14 0.0000000000000000e+00  -6.9954030766081817e-13 -8.9470994121665052e-14 0.0000000000000000e+00  1.0614733654249626e-12 1.5252889922553917e-14 0.0000000000000000e+00  9.2848272239600600e-13 -1.1273252649238614e-14 0.0000000000000000e+00  -3.6991562713221257e-13 2.0577915892062868e-17 0.0000000000000000e+00  -3.7874533449208750e-14 -1.4858983150500265e-14 0.0000000000000000e+00  -9.6061527439334882e-14 -4.8690434438449178e-14 0.0000000000000000e+00  1.0922065787301355e-12 -1.4963751066824429e-14 0.0000000000000000e+00  -1.1029132330093241e-12 -3.1174094374495989e-15 0.0000000000000000e+00  -5.8263972933961433e-13 3.4119296288681734e-14 0.0000000000000000e+00  3.2304287764647324e-13 2.1267207386587982e-13 0.0000000000000000e+00  -1.4145977630262507e-13 3.7719241118473567e-14 0.0000000000000000e+00  -6.7173901152257499e-13 -1.3136145867043580e-13 0.0000000000000000e+00  -4.4950001603742846e-13 -3.2242924220250834e-15 0.0000000000000000e+00  3.5156673876692371e-13 3.7555282447305499e-14 0.0000000000000000e+00  8.6331390728493797e-14 -1.7111558977092212e-13 0.0000000000000000e+00  -5.9238388998965811e-13 7.7105048827187859e-17 0.0000000000000000e+00  2.7135512407950240e-13 1.0309636154818020e-14 0.0000000000000000e+00  1.0456128048537777e-12 -1.0356536105761113e-14 0.0000000000000000e+00  6.2800059365238076e-13 -4.5853981040474469e-14 0.0000000000000000e+00  -5.7421724787966485e-13 1.3217961574675683e-13 0.0000000000000000e+00  1.0949769214112657e-13 -1.5059928665147444e-15 0.0000000000000000e+00  -4.9239227093886953e-13 1.0158600930777569e-13 0.0000000000000000e+00  3.0615295412772769e-13 -2.2061696258522304e-13 0.0000000000000000e+00  -1.0010687599521771e-12 -1.9669044489368136e-15 0.0000000000000000e+00  -1.0435688907033193e-12 1.5415361776694715e-14 0.0000000000000000e+00  5.5594587807552730e-13 1.6198550121052140e-13 0.0000000000000000e+00  2.7776796981062313e-13 -9.6516350819416195e-15 0.0000000000000000e+00  2.4590795405030248e-13 1.5661871653758722e-14 0.0000000000000000e+00  4.0352705480596251e-14 -2.5982770220192624e-14 0.0000000000000000e+00  9.2487788865674058e-13 7.6146363158389197e-15 0.0000000000000000e+00  -5.3322964549492088e-13 1.4080162474506880e-13 0.0000000000000000e+00  -1.1056472888891855e-12 5.0815385766792904e-15 0.0000000000000000e+00  1.9864918991082704e-13 -7.9842264036654075e-14 0.0000000000000000e+00  1.2042922855814275e-13 -3.8449378929225224e-14 0.0000000000000000e+00  7.2816543819423224e-13 2.1245164842542786e-15 0.0000000000000000e+00  -8.5749216663899868e-13 -5.5257847154340812e-14 0.0000000000000000e+00  5.5359352151845148e-16 -1.1185617244673341e-16 0.0000000000000000e+00  -5.4352553130491719e-13 -6.7078057348146613e-14 0.0000000000000000e+00  2.1318558127593219e-13 1.2315052156043732e-13 0.0000000000000000e+00  5.4459577256860135e-13 -3.8628319982491215e-14 0.0000000000000000e+00  -3.9496174123305894e-13 8.0872462534395177e-14 0.0000000000000000e+00  4.8994310133227659e-14 -5.2606164580504292e-14 0.0000000000000000e+00  1.0740927396010451e-13 -1.3088416914349036e-13 0.0000000000000000e+00  6.1534141089403701e-13 1.7852873836364974e-14 0.0000000000000000e+00  -3.0273955677223635e-13 7.6868410497584783e-14 0.0000000000000000e+00  -5.1441112208310323e-14 -6.1751780243694744e-14 0.0000000000000000e+00  4.3546728941033254e-13 4.9494340020470739e-14 0.0000000000000000e+00  -4.8551195555467890e-13 -1.7042441814370990e-14 0.0000000000000000e+00  -7.6806045831320637e-13 1.3308326071556614e-14 0.0000000000000000e+00  1.7326119597825212e-13 4.2854911781989051e-14 0.0000000000000000e+00  -5.4239739731866325e-13 -1.5090757583335819e-14 0.0000000000000000e+00  -5.6530574776624944e-14 3.6330138419568877e-14 0.0000000000000000e+00  5.7322737290249117e-13 -6.5494169724187255e-14 0.0000000000000000e+00  -2.7120078224992332e-13 -1.1497444397508257e-13 0.0000000000000000e+00  3.3585654160587151e-14 1.1928169301654772e-13 0.0000000000000000e+00  2.8738230334595815e-13 -1.2680962530149020e-14 0.0000000000000000e+00  7.9249100656319304e-13 1.3339507731316768e-14 0.0000000000000000e+00  4.5524416788712023e-13 8.6320912544808184e-14 0.0000000000000000e+00  6.7127153854679949e-13 7.4342962317155909e-14 0.0000000000000000e+00  2.9148364608890667e-13 -1.1052707507810165e-13 0.0000000000000000e+00  -2.6473636120837314e-13 1.4874322926684095e-13 0.0000000000000000e+00  4.4390234724701448e-13 -1.8185113590299408e-14 0.0000000000000000e+00  -2.7931006126900503e-13 -1.3865156574856681e-13 0.0000000000000000e+00  4.6181089275310409e-14 1.3661340025894674e-13 0.0000000000000000e+00  -6.6468520737943569e-13 7.5123938344828668e-14 0.0000000000000000e+00  2.3050396645770642e-13 -1.2361049172936601e-13 0.0000000000000000e+00  -1.9891126015867571e-13 2.4589181446252797e-14 0.0000000000000000e+00  -8.0421179838387770e-13 -2.3817323098040573e-14 0.0000000000000000e+00  -8.3764807455780357e-13 -2.0918023096968389e-14 0.0000000000000000e+00  -7.0977722487031293e-13 2.8136355322071347e-14 0.0000000000000000e+00  6.5073414297606910e-13 -8.6387588813603840e-14 0.0000000000000000e+00  -6.9361026434640451e-13 2.6161964388495734e-14 0.0000000000000000e+00  8.5943611367532520e-13 -1.4557593885466785e-14 0.0000000000000000e+00  -2.6525897413619608e-13 -5.8620340502260666e-14 0.0000000000000000e+00  4.1634818120647830e-13 1.2037680714192558e-13 0.0000000000000000e+00  4.2279468840126562e-13 1.6051955304499360e-14 0.0000000000000000e+00  2.2525883574377995e-13 5.2646862203236209e-14 0.0000000000000000e+00  </DataArray> 
</PointData> 
</Piece>
</UnstructuredGrid>
</VTKFile>