<?xml version="1.0"?>
<VTKFile type="UnstructuredGrid"  version="0.1"  >
<UnstructuredGrid>
<Piece  NumberOfPoints="201" NumberOfCells="657">
<Points>
<DataArray  type="Float64"  NumberOfComponents="3"  format="ascii">-0.06801229471385659 0.3748379063386293 5367.432998537076  -0.4273593474910514 0.5967953253088908 -5367.672497375959  305.7920121430607 0.7308871721882326 -5100.765278338152  579.2295604063696 0.88255791356596 -4329.092665197961  792.4489237567676 0.09356428563064495 -3136.642101317329  926.5434948627521 -0.08387009092517199 -1645.157352394633  972.6188012104485 -0.1677083371844035 -0.1293047058077892  926.6911717365301 -0.1292150610900632 1645.177533564163  792.5901474234912 0.4275370121634006 3136.261487810533  579.6723040113546 0.5033363700746885 4329.203989358318  306.2725533780805 0.5308110265079879 5100.737633931492  387.8435908558029 -770.84745727633 -4658.952001990384  385.2559041334299 598.9952146884253 4775.000441892048  928.6837757034846 -709.8634888979575 -788.8664329416861  674.8976799371957 -758.6853752747326 3562.727786969688  847.6222831886636 712.6416706343142 2240.814134948103  843.9886654767807 712.2254065327684 -2280.26335260306  432.6879042618025 691.6161819052802 -4596.549980331763  149.5933191127332 -685.7032753956764 5102.374172110042  670.116363280583 -699.2898850063593 -3638.627901631091  470.2978893049062 -1367.807721923589 -3765.397803881548  695.0470756787205 -1356.141719041363 -2586.994729339169  481.2731162962696 -1935.403831414332 -2488.1868508995  674.4892380089018 -1830.811314652139 -1223.157702314493  427.4987290159529 -2318.351514908452 -1040.488024186528  605.1857118633436 -2086.380520997839 262.7970203967724  320.8769250842248 -2477.775764086109 474.9101330006275  463.0349402143372 -2146.252543806587 1801.528718522645  167.8611161172709 -2399.833060016726 1917.784212652942  296.4611213701066 -1942.473670197845 3170.308748414146  -11.4494973947197 -2085.117865935016 3177.689239387905  702.8228931643267 -1692.291466168573 1517.706759763397  670.3763420055366 699.6134038627116 3638.693643913116  681.5315797489159 1364.016841635427 2676.151944542779  821.3210496780245 1319.009960154633 1208.8060549516  110.7444518422238 -1535.100506999799 4254.36263833745  403.3662493906069 -1350.959292261909 4007.269051957534  470.2107262940424 1288.801660430039 3882.378894165409  455.3193808456942 1902.532813824835 2716.728864783015  930.4102789192071 -692.2186323183678 788.7540718278788  826.7616180479361 -1428.826042105904 91.27319918589174  849.1375342953301 -713.2395885342902 -2219.037631069201  149.2421888892388 686.6973579304723 -5102.711299317832  663.7548618058017 681.4617721172011 -3688.838171021218  676.3222600699208 1355.907250779032 -2730.302059573948  208.0178061156797 -2325.833264130585 -2160.240312883152  -145.7425824467395 -2429.326055652814 1815.536859756611  201.2531466967621 -1392.163151812006 -4368.188036561244  815.7029858848585 1334.471754185412 -1249.420842970571  616.7566386212064 1920.620516415565 -1506.462044795265  439.0516411098478 1851.712191706673 -2923.761723662983  348.8520527013404 2321.797923281721 -1626.452144074964  153.9501822019786 2163.699590907905 -2847.359608263898  45.41408665643294 2512.204729844017 -1476.822514976701  -158.170074567438 2229.688153231059 -2628.007956676253  -261.5148302015482 2471.545211157811 -1113.242508607466  -457.6830775763946 2106.00578406034 -2011.560340244367  -50.36794574435791 2620.449573978005 98.43071809727549  -319.3376243180722 -2009.921185012054 2928.049089888647  -441.5572005230044 -2243.087766142807 1447.625435567272  -537.0490999340253 2200.545781445369 -543.1353619449993  -703.3459281700871 1721.315144434224 -1376.682352580054  -748.0423096619501 1722.319674719222 123.1321902051067  -870.0135343185991 1137.417413102703 -859.2826578400131  -881.0651445253515 1080.166060721686 801.5065432408242  -775.537967406905 1069.735141915441 -2450.608541001562  -719.19944744807 1587.53941448248 1728.079597596427  -916.0006491714886 471.0723146022958 -1560.045111956033  -815.4041926617123 881.7700034664057 2358.199678711424  -783.8376971442832 299.4231590062009 -3146.178980556716  -877.0060526425548 -340.9941951608519 -2242.090583812239  -611.8555170496417 1317.373381988386 3208.603913399691  -137.2832719518492 -1056.64751875925 4824.186775305404  -597.8332273433213 -1729.356836333069 2384.144816152973  -706.2155092743197 -455.876734325936 -3595.228973093738  -763.4413382220038 -1079.414280333541 -2543.799379488362  -935.9734477550579 299.6410207042038 1345.729557768615  -333.4862866894251 1724.644324162106 -3564.931877329583  -673.3281174570825 560.9576715534341 3722.441787743246  214.6824179127487 1738.679583174404 3785.848596637482  -904.7534806582155 -893.2432211253096 -902.4287403210125  -574.313646905057 180.9929271140313 -4335.281010231373  -449.1066175876326 992.183954325151 4302.547991641014  -553.8164347307568 -1147.180129667416 -3744.87078256497  -581.5921973071372 -1725.729223400855 -2508.061326164482  -491.8857376726967 1942.839290558343 2406.704512739791  -253.6436791296495 -2535.319718654223 343.9729563531203  -472.04722525634 166.6577230961362 4693.422063873614  -693.4556105706852 -242.1138106523935 3752.348883542064  -337.2448549500902 -1712.943610399715 -3577.49785138477  -339.9648395440624 -2205.542615040405 -2213.677855447681  -289.6452423297135 -1073.04402685198 -4608.111648870212  506.9739640012653 2265.453440521696 -150.6754413373661  -676.1589033840187 -1868.0838818318 945.6807870854502  -807.1626926960397 -1261.009745894342 1653.279082565238  179.7269313069264 2260.208564101881 2482.047104896169  -64.75480541991365 2026.587439681707 3316.119338872759  -22.26402271736606 1513.120012596696 4327.806865641031  -268.5639282394677 636.0176406987229 4986.510833119394  -448.3240284517833 -1397.274454565304 3796.182699953143  235.1604206897916 1699.292498583532 -3826.302400775254  -558.5815301410365 -2099.43388875876 -1165.460948758511  -73.98891830945891 1292.619418745381 -4610.034085837256  -163.2473110251751 551.2136943857404 -5163.518696320655  -111.9599767102243 2441.497385063845 1815.203246138799  -209.5325176837171 -390.2163154500584 5178.769762730336  -72.58541627997057 -2125.839169076033 -3044.513796279866  -451.5348631147746 -630.60069747351 4579.253603692854  -693.3237499370988 -1032.427242955481 3147.213406935634  -856.6085031787898 -500.3051640833465 2359.1705886681  -934.5946614891516 -655.0163846061502 746.7676816725293  -968.3362465740125 -85.4356867751484 -462.1224899800587  -381.4015615482214 1102.61331244457 -4378.646313076943  -576.4790571721597 1230.63659529678 -3526.706707461236  -85.68678357641019 -2460.808265771076 -1749.925657638908  -34.07693664209965 1908.240881525238 -3605.274425390692  399.6817015605952 2304.336476340141 1395.110144030968  844.0018693414886 -681.4464537503204 2321.68888753087  49.38779876351342 -718.8900003394094 -5139.523410918578  159.1600063699116 -2558.657292196978 -823.3398670879182  -303.5230502173926 1648.851267212458 3783.575377385221  932.4216987401398 664.7972929742746 -805.7567659498363  634.6527770382553 1904.557940385728 1372.595717392295  745.0804439767493 1732.682561790295 -60.86303347024221  -753.5775232618613 -1564.376345832062 -1348.150411215752  -332.9495851882342 2469.113048645122 415.7650485929652  -554.556649557342 2131.108618599566 976.3878209947604  -54.22656415603011 -1569.332632634228 -4231.601920961042  -231.3857901092998 -283.1892718146059 -5182.791771805895  -485.8756038392798 -458.4178977152514 -4565.334863046539  232.6352019447236 2550.70388233726 -273.1364606288311  27.40146434621102 -2606.392507007254 594.0147154632288  548.3441160139377 -1644.469349559923 2907.692040734412  934.0416992170193 673.6904364005555 715.0390919657768  433.228193452653 -685.3737235285718 4598.849356396841  -831.2726508567872 -1408.17641163932 131.4699211466209  -178.5740736406288 -1699.169265575314 3910.208469292504  483.0097808694529 1248.990611688987 -3890.12120338812  -837.8645093913223 209.01082894419 2716.291201570456  224.3986969307217 -1927.309635286187 -3365.848058936026  243.781187406752 1230.543229079539 4514.617473215046  143.5734143372094 2534.521575049911 1123.515346727774  -616.8043224245761 1637.344633992988 -2506.853551723786  821.6574006774329 -1269.727371342817 -1392.800778057911  -15.11861467467921 662.3457977907894 5180.699401038393  746.2191683783918 -1228.006804985184 2422.644321214153  -946.472820766399 630.5660070015603 -121.0230538054086  -516.6281631970891 -2251.911019242311 51.48754085365422  -317.3080870887837 -2452.07545182126 -885.6892247811583  879.1839951569599 1167.246094357531 -37.07247791019339  -222.0787200104353 1262.417397283296 4508.747726867597  275.9732232419065 1145.681535538362 -4556.797382420167  -334.2770278861994 188.0903916629628 -5033.133432640525  -366.3695470357255 2290.300729193347 1697.869759844443  834.9533383179795 -1180.855646577226 1465.133367530712  -68.66680939446316 -2604.650566971315 -536.826785002821  -632.4910268248193 672.045971935521 -3859.952566919935  -434.0495546623687 565.6570471144745 -4668.152031772652  -279.7814100249129 2092.128639873911 2804.342906401973  -697.0403576735266 -1868.365012806157 -298.4534330859115  0.003735464771365892 0.05999715599085838 -0.170087628064675  -311.514444108724 -1039.388851521889 147.5134005660575  468.6190640141842 405.5622579375759 -24.47176989980042  -187.8462044483826 1089.38032874591 1173.023195920848  350.5197141005113 -773.3423709289501 1066.758365383746  -228.3786033846964 112.1679418328379 -2372.530716935705  -481.5087605384859 206.3134473379185 1.898393953053564  92.78558746420225 1232.104554715859 -1018.945796871189  326.4964860073533 -607.1809601434587 -1595.234282972868  -253.756888857342 -114.6529695909555 2300.748641066745  244.4150512850657 914.2559955698802 1855.172539638404  -90.40175570075337 -1041.957300708637 -2016.184222586668  81.06240146038134 -1512.457316283975 9.767237258818112  194.2190425946224 398.1582208852427 -26
[...]
<PointData  Vectors="Centrifugal"> 
<DataArray  type="Float64"  Name="Centrifugal"  NumberOfComponents="3" format="ascii">-1.6070295685933319e-09 8.7429397633052042e-09 0.0000000000000000e+00  -1.0007947143219663e-08 1.3978908092505171e-08 0.0000000000000000e+00  7.3958049426206963e-06 1.7113784214130188e-08 0.0000000000000000e+00  1.4011014558159491e-05 2.0655225798266710e-08 0.0000000000000000e+00  1.9172403149186539e-05 2.1985539038877646e-09 0.0000000000000000e+00  2.2420719017292254e-05 -1.9545426435460198e-09 0.0000000000000000e+00  2.3536967333872054e-05 -3.9173041915981534e-09 0.0000000000000000e+00  2.2424167873305352e-05 -3.0343583103148270e-09 0.0000000000000000e+00  1.9175699136021410e-05 9.9797214949520935e-09 0.0000000000000000e+00  1.4021366472121975e-05 1.1750591183445126e-08 0.0000000000000000e+00  7.4070439837592680e-06 1.2394849949697997e-08 0.0000000000000000e+00  9.3799778333544701e-06 -1.8623606200918403e-05 0.0000000000000000e+00  9.3174157932974034e-06 1.4471496255071337e-05 0.0000000000000000e+00  2.2471406889134574e-05 -1.7131456495776360e-05 0.0000000000000000e+00  1.6325510456630670e-05 -1.8322062038336275e-05 0.0000000000000000e+00  2.0507585792690311e-05 1.7202677400117118e-05 0.0000000000000000e+00  2.0419768178852541e-05 1.7192956553507980e-05 0.0000000000000000e+00  1.0464828340476801e-05 1.6708150517943253e-05 0.0000000000000000e+00  3.6176002679379578e-06 -1.6569871186370233e-05 0.0000000000000000e+00  1.6210180907637173e-05 -1.6887492384754361e-05 0.0000000000000000e+00  1.1373551818642366e-05 -3.3035272762602108e-05 0.0000000000000000e+00  1.6811706936131140e-05 -3.2741409097124080e-05 0.0000000000000000e+00  1.1637307039168744e-05 -4.6729303906510450e-05 0.0000000000000000e+00  1.6312087178883482e-05 -4.4192654724580967e-05 0.0000000000000000e+00  1.0335441495090249e-05 -5.5964630920734312e-05 0.0000000000000000e+00  1.4634002315336478e-05 -5.0360244318805684e-05 0.0000000000000000e+00  7.7568040347992620e-06 -5.9812541567982241e-05 0.0000000000000000e+00  1.1195167327928655e-05 -5.1814450770338532e-05 0.0000000000000000e+00  4.0576961897732875e-06 -5.7940487059278059e-05 0.0000000000000000e+00  7.1676922402548712e-06 -4.6909596501935148e-05 0.0000000000000000e+00  -2.7688099657115118e-07 -5.0355523045961260e-05 0.0000000000000000e+00  1.6998334742092059e-05 -4.0849925067099651e-05 0.0000000000000000e+00  1.6216248449162165e-05 1.6895045043263200e-05 0.0000000000000000e+00  1.6484315541499430e-05 3.2932375531464238e-05 0.0000000000000000e+00  1.9868578619714805e-05 3.1836338453971214e-05 0.0000000000000000e+00  2.6776335457020734e-06 -3.7083436310257621e-05 0.0000000000000000e+00  9.7544857018882615e-06 -3.2631388273808694e-05 0.0000000000000000e+00  1.1371449684301313e-05 3.1127877496868478e-05 0.0000000000000000e+00  1.1009591725675300e-05 4.5937937987044397e-05 0.0000000000000000e+00  2.2513224750820923e-05 -1.6705899353026378e-05 0.0000000000000000e+00  2.0000047760733416e-05 -3.4484603318068190e-05 0.0000000000000000e+00  2.0544552134710509e-05 -1.7217140888684147e-05 0.0000000000000000e+00  3.6093964085117504e-06 1.6593115457974323e-05 0.0000000000000000e+00  1.6056050367397892e-05 1.6457208620720317e-05 0.0000000000000000e+00  1.6358322852778926e-05 3.2737202543963733e-05 0.0000000000000000e+00  5.0287464041759863e-06 -5.6155653221107847e-05 0.0000000000000000e+00  -3.5230981665492857e-06 -5.8651803200572226e-05 0.0000000000000000e+00  4.8665733055711596e-06 -3.3631806015107763e-05 0.0000000000000000e+00  1.9732683048976863e-05 3.2209752666931489e-05 0.0000000000000000e+00  1.4914621700043221e-05 4.6363425793987345e-05 0.0000000000000000e+00  1.0616456187379091e-05 4.4713478065957444e-05 0.0000000000000000e+00  8.4336492872814892e-06 5.6052736362817108e-05 0.0000000000000000e+00  3.7219582776222802e-06 5.2248525719767068e-05 0.0000000000000000e+00  1.0976790782190675e-06 6.0650706796572567e-05 0.0000000000000000e+00  -3.8236986319489667e-06 5.3839352710521235e-05 0.0000000000000000e+00  -6.3215997867528306e-06 5.9665767944404769e-05 0.0000000000000000e+00  -1.1066047778121456e-05 5.0844776123674968e-05 0.0000000000000000e+00  -1.2174889290541372e-06 6.3258268477070921e-05 0.0000000000000000e+00  -7.7209007537559266e-06 -4.8535288815463341e-05 0.0000000000000000e+00  -1.0675503084387007e-05 -5.4150065517228539e-05 0.0000000000000000e+00  -1.2985211692078030e-05 5.3117963489969286e-05 0.0000000000000000e+00  -1.7010805707300500e-05 4.1549812349666882e-05 0.0000000000000000e+00  -1.8092711194492853e-05 4.1570249414050743e-05 0.0000000000000000e+00  -2.1048715747880183e-05 2.7451898626342333e-05 0.0000000000000000e+00  -2.1316792560824198e-05 2.6069694648183298e-05 0.0000000000000000e+00  -1.8760925838105891e-05 2.5824896443867727e-05 0.0000000000000000e+00  -1.7395238885145628e-05 3.8321972722441116e-05 0.0000000000000000e+00  -2.2164844092964616e-05 1.1369768162252957e-05 0.0000000000000000e+00  -1.9727002222866770e-05 2.1286225612970417e-05 0.0000000000000000e+00  -1.8963514674321964e-05 7.2292107184208486e-06 0.0000000000000000e+00  -2.1220110223661284e-05 -8.2311050607520407e-06 0.0000000000000000e+00  -1.4798420459665529e-05 3.1811125213784508e-05 0.0000000000000000e+00  -3.3198546989326142e-06 -2.5530811744201883e-05 0.0000000000000000e+00  -1.4457820410114688e-05 -4.1752046348435170e-05 0.0000000000000000e+00  -1.7084109397792828e-05 -1.1008896266834316e-05 0.0000000000000000e+00  -1.8468114529020694e-05 -2.6059309430235902e-05 0.0000000000000000e+00  -2.2648984331499045e-05 7.2315858645541280e-06 0.0000000000000000e+00  -8.0635688551761671e-06 4.1652553558590547e-05 0.0000000000000000e+00  -1.6287863461453500e-05 1.3546827514100187e-05 0.0000000000000000e+00  5.1908201085222839e-06 4.1994570602258983e-05 0.0000000000000000e+00  -2.1891146817899293e-05 -2.1557627712085541e-05 0.0000000000000000e+00  -1.3891554271989378e-05 4.3716386363818447e-06 0.0000000000000000e+00  -1.0861757459581814e-05 2.3966506078644951e-05 0.0000000000000000e+00  -1.3394279689951926e-05 -2.7706187205599525e-05 0.0000000000000000e+00  -1.4064712483393264e-05 -4.1665462575746867e-05 0.0000000000000000e+00  -1.1893986866620925e-05 4.6907766078571507e-05 0.0000000000000000e+00  -6.1312483353845474e-06 -6.1202035471727783e-05 0.0000000000000000e+00  -1.1417280173582213e-05 4.0259515782101264e-06 0.0000000000000000e+00  -1.6775621249584861e-05 -5.8477304334515961e-06 0.0000000000000000e+00  -8.1544503660261007e-06 -4.1370430928905358e-05 0.0000000000000000e+00  -8.2189633591065730e-06 -5.3250786197038332e-05 0.0000000000000000e+00  -7.0042370758726944e-06 -2.5924657982575673e-05 0.0000000000000000e+00  1.2257446640218531e-05 5.4684655335812133e-05 0.0000000000000000e+00  -1.6352317603501443e-05 -4.5091132770665873e-05 0.0000000000000000e+00  -1.9526042905102501e-05 -3.0438075321464813e-05 0.0000000000000000e+00  4.3448822744977364e-06 5.4574528759444605e-05 0.0000000000000000e+00  -1.5655507075081972e-06 4.8942626450602567e-05 0.0000000000000000e+00  -5.3840610877993198e-07 3.6552838729096421e-05 0.0000000000000000e+00  -6.4950530834027473e-06 1.5366925949991705e-05 0.0000000000000000e+00  -1.0842114763279514e-05 -3.3747576395548269e-05 0.0000000000000000e+00  5.6861467825813324e-06 4.1043687545531372e-05 0.0000000000000000e+00  -1.3506644843661589e-05 -5.0678205077758769e-05 0.0000000000000000e+00  -1.7889299318381808e-06 3.1229527166490150e-05 0.0000000000000000e+00  -3.9475826553842323e-06 1.3319582587185105e-05 0.0000000000000000e+00  -2.7064062306724743e-06 5.8945640825184237e-05 0.0000000000000000e+00  -5.0673535769388548e-06 -9.4291885692302877e-06 0.0000000000000000e+00  -1.7546997931363815e-06 -5.1336771076229618e-05 0.0000000000000000e+00  -1.0920902536420971e-05 -1.5235076460412377e-05 0.0000000000000000e+00  -1.6771049394292404e-05 -2.4929557626556456e-05 0.0000000000000000e+00  -2.0725966700796024e-05 -1.2077417266719280e-05 0.0000000000000000e+00  -2.2615007548101693e-05 -1.5807806863869307e-05 0.0000000000000000e+00  -2.3433407490076242e-05 -2.0616656080707038e-06 0.0000000000000000e+00  -9.2234666339574804e-06 2.6635631625607101e-05 0.0000000000000000e+00  -1.3942598612241330e-05 2.9719685531117598e-05 0.0000000000000000e+00  -2.0712025788615680e-06 -5.9411292643342181e-05 0.0000000000000000e+00  -8.2385370674434191e-07 4.6088516743307124e-05 0.0000000000000000e+00  9.6626456212367311e-06 5.5629066316813876e-05 0.0000000000000000e+00  2.0419844334303434e-05 -1.6449921680176456e-05 0.0000000000000000e+00  1.1945275726790822e-06 -1.7372323118366443e-05 0.0000000000000000e+00  3.8472689517701174e-06 -6.1767208457422392e-05 0.0000000000000000e+00  -7.3392715305586361e-06 3.9824247001100715e-05 0.0000000000000000e+00  2.2562043557804948e-05 1.6044429151721610e-05 0.0000000000000000e+00  1.5347685393613464e-05 4.5974577170478380e-05 0.0000000000000000e+00  1.8020944739948205e-05 4.1820429865610070e-05 0.0000000000000000e+00  -1.8227389987236041e-05 -3.7760187286992356e-05 0.0000000000000000e+00  -8.0486621197117262e-06 5.9603653174586329e-05 0.0000000000000000e+00  -1.3408861003092320e-05 5.1442774085780304e-05 0.0000000000000000e+00  -1.3110800760885365e-06 -3.7910401322400992e-05 0.0000000000000000e+00  -5.5956186713496305e-06 -6.8434673270888270e-06 0.0000000000000000e+00  -1.1751481751930560e-05 -1.1074949841038573e-05 0.0000000000000000e+00  5.6233133033296268e-06 6.1573761630924495e-05 0.0000000000000000e+00  6.6225060771631583e-07 -6.2919375283011547e-05 0.0000000000000000e+00  1.3260668228378486e-05 -3.9707894505431448e-05 0.0000000000000000e+00  2.2601266537108671e-05 1.6258758433511042e-05 0.0000000000000000e+00  1.0477653462696201e-05 -1.6558319976432157e-05 0.0000000000000000e+00  -2.0109458915922004e-05 -3.3985673774605391e-05 0.0000000000000000e+00  -4.3178557260015301e-06 -4.1042578925882776e-05 0.0000000000000000e+00  1.1681327690503844e-05 3.0166737403755234e-05 0.0000000000000000e+00  -2.0272289411264097e-05 5.0455698611952185e-06 0.0000000000000000e+00  5.4255363924706918e-06 -4.6545842534888356e-05 0.0000000000000000e+00  5.8949545594030635e-06 2.9727829791653516e-05 0.0000000000000000e+00  3.4704027908232724e-06 6.1186751168926208e-05 0.0000000000000000e+00  -1.4916862406784572e-05 3.9531400694432148e-05 0.0000000000000000e+00  1.9877099633595333e-05 -3.0647206605088994e-05 0.0000000000000000e+00  -3.6568713793894992e-07 1.6004322029927709e-05 0.0000000000000000e+00  1.8050552850662207e-05 -2.9646263665867921e-05 0.0000000000000000e+00  -2.2902509061703055e-05 1.5217595312456202e-05 0.0000000000000000e+00  -1.2491022369333532e-05 -5.4357109209093369e-05 0.0000000000000000e+00  -7.6704784496466323e-06 -5.9193348735385954e-05 0.0000000000000000e+00  2.1270518153718826e-05 2.8170800526287907e-05 0.0000000000000000e+00  -5.3702352497781464e-06 3.0497894684182967e-05 0.0000000000000000e+00  6.6737699270808419e-06 2.7678360139657515e-05 0.0000000000000000e+00  -8.0842231155265128e-06 4.5440875473771313e-06 0.0000000000000000e+00  -8.8573735271717244e-06 5.5292531750207680e-05 0.0000000000000000e+00  2.0199300617740764e-05 -2.8502175875114557e-05 0.0000000000000000e+00  -1.6597708054769135e-06 -6.2876987195596861e-05 0.0000000000000000e+00  -1.5298979321918185e-05 1.6230896183950460e-05 0.0000000000000000e+00  -1.0497573651034953e-05 1.3665688582843580e-05 0.0000000000000000e+00  -6.7643685865883603e-06 5.0518740238026671e-05 0.0000000000000000e+00  -1.6857496361952128e-05 -4.5095951415952702e-05 0.0000000000000000e+00  9.3549648284575767e-11 1.4043394822860922e-09 0.0000000000000000e+00  -7.5373566925432082e-06 -2.5081019249344776e-05 0.0000000000000000e+00  1.1340598545202493e-05 9.7862074984035090e-06 0.0000000000000000e+00  -4.5449462294262373e-06 2.6289766400111595e-05 0.0000000000000000e+00  8.4815964954788234e-06 -1.8662002674098107e-05 0.0000000000000000e+00  -5.5261051444331993e-06 2.7075949964372492e-06 0.0000000000000000e+00  -1.1652910110497468e-05 4.9783978046563664e-06 0.0000000000000000e+00  2.2448496390976339e-06 2.9734235601725670e-05 0.0000000000000000e+00  7.9004484877272168e-06 -1.4652957470128274e-05 0.0000000000000000e+00  -6.1404865755084426e-06 -2.7674543964044323e-06 0.0000000000000000e+00  5.9135588254916506e-06 2.2065527354109392e-05 0.0000000000000000e+00  -2.1871238217735737e-06 -2.5148703145082978e-05 0.0000000000000000e+00  1.9610185709610514e-06 -3.6498929661236782e-05 0.0000000000000000e+00  4.6993912348265886e-06 9.6110844264107646e-06 0.0000000000000000e+00  -1.8609925432470977e-06 -2.8273775485676710e-05 0.0000000000000000e+00  4.1233632869009485e-06 -3.4244781272912010e-06 0.0000000000000000e+00  -7.9901340388419101e-06 2.7778949358233591e-05 0.0000000000000000e+00  -1.1713978368818543e-05 -1.3263120006442239e-05 0.0000000000000000e+00  1.1922229234378359e-05 1.6640918987359898e-06 0.0000000000000000e+00  -1.5992301219246612e-06 1.7042625478290357e-05 0.0000000000000000e+00  2.4761959257737824e-06 3.8981340773838108e-05 0.0000000000000000e+00  1.0144714915582673e-05 2.3028587624624626e-05 0.0000000000000000e+00  1.0174287362337677e-05 3.2422111240042794e-05 0.0000000000000000e+00  -1.1622529712584943e-05 1.4640226925958466e-05 0.0000000000000000e+00  1.4250987436516462e-05 -1.2206843780423419e-05 0.0000000000000000e+00  -2.8749828987708936e-06 2.5423515839712701e-05 0.0000000000000000e+00  -1.3718335669669408e-05 -1.3488029684679552e-05 0.0000000000000000e+00  1.3407058726964288e-05 2.3056194754174462e-06 0.0000000000000000e+00  9.9985314587595298e-06 -3.1912936064533423e-05 0.0000000000000000e+00  -1.2778617816814394e-05 1.1741439472587875e-05 0.0000000000000000e+00  2.9645455595640286e-06 -1.2370931960265777e-05 0.0000000000000000e+00  -4.6578817528423368e-06 -4.0009364233009086e-05 0.0000000000000000e+00  -4.5200105156208905e-06 -4.2100102696823532e-05 0.0000000000000000e+00  5.3678671261346836e-06 -3.7042934682243999e-05 0.0000000000000000e+00  -1.1667605594324218e-05 3.1752132308736650e-05 0.0000000000000000e+00  4.5208525552769172e-06 -3.6089561584889173e-05 0.0000000000000000e+00  -3.2446045747686355e-06 4.2691132971453735e-05 0.0000000000000000e+00  -7.8004879649587194e-06 -1.5960629384833130e-05 0.0000000000000000e+00  1.3406659506412406e-05 2.0729210589834200e-05 0.0000000000000000e+00  1.6865927279497040e-06 1.9245031759662574e-05 0.0000000000000000e+00  5.0015268435348737e-06 1.0357241427320900e-05 0.0000000000000000e+00  </DataArray> 
</PointData> 
</Piece>
</UnstructuredGrid>
</VTKFile>