<?xml version="1.0"?>
<VTKFile type="UnstructuredGrid"  version="0.1"  >
<UnstructuredGrid>
<Piece  NumberOfPoints="201" NumberOfCells="657">
<Points>
<DataArray  type="Float64"  NumberOfComponents="3"  format="ascii">-0.06801229471385659 0.3748379063386293 5367.432998537076  -0.4273593474910514 0.5967953253088908 -5367.672497375959  305.7920121430607 0.7308871721882326 -5100.765278338152  579.2295604063696 0.88255791356596 -4329.092665197961  792.4489237567676 0.09356428563064495 -3136.642101317329  926.5434948627521 -0.08387009092517199 -1645.157352394633  972.6188012104485 -0.1677083371844035 -0.1293047058077892  926.6911717365301 -0.1292150610900632 1645.177533564163  792.5901474234912 0.4275370121634006 3136.261487810533  579.6723040113546 0.5033363700746885 4329.203989358318  306.2725533780805 0.5308110265079879 5100.737633931492  387.8435908558029 -770.84745727633 -4658.952001990384  385.2559041334299 598.9952146884253 4775.000441892048  928.6837757034846 -709.8634888979575 -788.8664329416861  674.8976799371957 -758.6853752747326 3562.727786969688  847.6222831886636 712.6416706343142 2240.814134948103  843.9886654767807 712.2254065327684 -2280.26335260306  432.6879042618025 691.6161819052802 -4596.549980331763  149.5933191127332 -685.7032753956764 5102.374172110042  670.116363280583 -699.2898850063593 -3638.627901631091  470.2978893049062 -1367.807721923589 -3765.397803881548  695.0470756787205 -1356.141719041363 -2586.994729339169  481.2731162962696 -1935.403831414332 -2488.1868508995  674.4892380089018 -1830.811314652139 -1223.157702314493  427.4987290159529 -2318.351514908452 -1040.488024186528  605.1857118633436 -2086.380520997839 262.7970203967724  320.8769250842248 -2477.775764086109 474.9101330006275  463.0349402143372 -2146.252543806587 1801.528718522645  167.8611161172709 -2399.833060016726 1917.784212652942  296.4611213701066 -1942.473670197845 3170.308748414146  -11.4494973947197 -2085.117865935016 3177.689239387905  702.8228931643267 -1692.291466168573 1517.706759763397  670.3763420055366 699.6134038627116 3638.693643913116  681.5315797489159 1364.016841635427 2676.151944542779  821.3210496780245 1319.009960154633 1208.8060549516  110.7444518422238 -1535.100506999799 4254.36263833745  403.3662493906069 -1350.959292261909 4007.269051957534  470.2107262940424 1288.801660430039 3882.378894165409  455.3193808456942 1902.532813824835 2716.728864783015  930.4102789192071 -692.2186323183678 788.7540718278788  826.7616180479361 -1428.826042105904 91.27319918589174  849.1375342953301 -713.2395885342902 -2219.037631069201  149.2421888892388 686.6973579304723 -5102.711299317832  663.7548618058017 681.4617721172011 -3688.838171021218  676.3222600699208 1355.907250779032 -2730.302059573948  208.0178061156797 -2325.833264130585 -2160.240312883152  -145.7425824467395 -2429.326055652814 1815.536859756611  201.2531466967621 -1392.163151812006 -4368.188036561244  815.7029858848585 1334.471754185412 -1249.420842970571  616.7566386212064 1920.620516415565 -1506.462044795265  439.0516411098478 1851.712191706673 -2923.761723662983  348.8520527013404 2321.797923281721 -1626.452144074964  153.9501822019786 2163.699590907905 -2847.359608263898  45.41408665643294 2512.204729844017 -1476.822514976701  -158.170074567438 2229.688153231059 -2628.007956676253  -261.5148302015482 2471.545211157811 -1113.242508607466  -457.6830775763946 2106.00578406034 -2011.560340244367  -50.36794574435791 2620.449573978005 98.43071809727549  -319.3376243180722 -2009.921185012054 2928.049089888647  -441.5572005230044 -2243.087766142807 1447.625435567272  -537.0490999340253 2200.545781445369 -543.1353619449993  -703.3459281700871 1721.315144434224 -1376.682352580054  -748.0423096619501 1722.319674719222 123.1321902051067  -870.0135343185991 1137.417413102703 -859.2826578400131  -881.0651445253515 1080.166060721686 801.5065432408242  -775.537967406905 1069.735141915441 -2450.608541001562  -719.19944744807 1587.53941448248 1728.079597596427  -916.0006491714886 471.0723146022958 -1560.045111956033  -815.4041926617123 881.7700034664057 2358.199678711424  -783.8376971442832 299.4231590062009 -3146.178980556716  -877.0060526425548 -340.9941951608519 -2242.090583812239  -611.8555170496417 1317.373381988386 3208.603913399691  -137.2832719518492 -1056.64751875925 4824.186775305404  -597.8332273433213 -1729.356836333069 2384.144816152973  -706.2155092743197 -455.876734325936 -3595.228973093738  -763.4413382220038 -1079.414280333541 -2543.799379488362  -935.9734477550579 299.6410207042038 1345.729557768615  -333.4862866894251 1724.644324162106 -3564.931877329583  -673.3281174570825 560.9576715534341 3722.441787743246  214.6824179127487 1738.679583174404 3785.848596637482  -904.7534806582155 -893.2432211253096 -902.4287403210125  -574.313646905057 180.9929271140313 -4335.281010231373  -449.1066175876326 992.183954325151 4302.547991641014  -553.8164347307568 -1147.180129667416 -3744.87078256497  -581.5921973071372 -1725.729223400855 -2508.061326164482  -491.8857376726967 1942.839290558343 2406.704512739791  -253.6436791296495 -2535.319718654223 343.9729563531203  -472.04722525634 166.6577230961362 4693.422063873614  -693.4556105706852 -242.1138106523935 3752.348883542064  -337.2448549500902 -1712.943610399715 -3577.49785138477  -339.9648395440624 -2205.542615040405 -2213.677855447681  -289.6452423297135 -1073.04402685198 -4608.111648870212  506.9739640012653 2265.453440521696 -150.6754413373661  -676.1589033840187 -1868.0838818318 945.6807870854502  -807.1626926960397 -1261.009745894342 1653.279082565238  179.7269313069264 2260.208564101881 2482.047104896169  -64.75480541991365 2026.587439681707 3316.119338872759  -22.26402271736606 1513.120012596696 4327.806865641031  -268.5639282394677 636.0176406987229 4986.510833119394  -448.3240284517833 -1397.274454565304 3796.182699953143  235.1604206897916 1699.292498583532 -3826.302400775254  -558.5815301410365 -2099.43388875876 -1165.460948758511  -73.98891830945891 1292.619418745381 -4610.034085837256  -163.2473110251751 551.2136943857404 -5163.518696320655  -111.9599767102243 2441.497385063845 1815.203246138799  -209.5325176837171 -390.2163154500584 5178.769762730336  -72.58541627997057 -2125.839169076033 -3044.513796279866  -451.5348631147746 -630.60069747351 4579.253603692854  -693.3237499370988 -1032.427242955481 3147.213406935634  -856.6085031787898 -500.3051640833465 2359.1705886681  -934.5946614891516 -655.0163846061502 746.7676816725293  -968.3362465740125 -85.4356867751484 -462.1224899800587  -381.4015615482214 1102.61331244457 -4378.646313076943  -576.4790571721597 1230.63659529678 -3526.706707461236  -85.68678357641019 -2460.808265771076 -1749.925657638908  -34.07693664209965 1908.240881525238 -3605.274425390692  399.6817015605952 2304.336476340141 1395.110144030968  844.0018693414886 -681.4464537503204 2321.68888753087  49.38779876351342 -718.8900003394094 -5139.523410918578  159.1600063699116 -2558.657292196978 -823.3398670879182  -303.5230502173926 1648.851267212458 3783.575377385221  932.4216987401398 664.7972929742746 -805.7567659498363  634.6527770382553 1904.557940385728 1372.595717392295  745.0804439767493 1732.682561790295 -60.86303347024221  -753.5775232618613 -1564.376345832062 -1348.150411215752  -332.9495851882342 2469.113048645122 415.7650485929652  -554.556649557342 2131.108618599566 976.3878209947604  -54.22656415603011 -1569.332632634228 -4231.601920961042  -231.3857901092998 -283.1892718146059 -5182.791771805895  -485.8756038392798 -458.4178977152514 -4565.334863046539  232.6352019447236 2550.70388233726 -273.1364606288311  27.40146434621102 -2606.392507007254 594.0147154632288  548.3441160139377 -1644.469349559923 2907.692040734412  934.0416992170193 673.6904364005555 715.0390919657768  433.228193452653 -685.3737235285718 4598.849356396841  -831.2726508567872 -1408.17641163932 131.4699211466209  -178.5740736406288 -1699.169265575314 3910.208469292504  483.0097808694529 1248.990611688987 -3890.12120338812  -837.8645093913223 209.01082894419 2716.291201570456  224.3986969307217 -1927.309635286187 -3365.848058936026  243.781187406752 1230.543229079539 4514.617473215046  143.5734143372094 2534.521575049911 1123.515346727774  -616.8043224245761 1637.344633992988 -2506.853551723786  821.6574006774329 -1269.727371342817 -1392.800778057911  -15.11861467467921 662.3457977907894 5180.699401038393  746.2191683783918 -1228.006804985184 2422.644321214153  -946.472820766399 630.5660070015603 -121.0230538054086  -516.6281631970891 -2251.911019242311 51.48754085365422  -317.3080870887837 -2452.07545182126 -885.6892247811583  879.1839951569599 1167.246094357531 -37.07247791019339  -222.0787200104353 1262.417397283296 4508.747726867597  275.9732232419065 1145.681535538362 -4556.797382420167  -334.2770278861994 188.0903916629628 -5033.133432640525  -366.3695470357255 2290.300729193347 1697.869759844443  834.9533383179795 -1180.855646577226 1465.133367530712  -68.66680939446316 -2604.650566971315 -536.826785002821  -632.4910268248193 672.045971935521 -3859.952566919935  -434.0495546623687 565.6570471144745 -4668.152031772652  -279.7814100249129 2092.128639873911 2804.342906401973  -697.0403576735266 -1868.365012806157 -298.4534330859115  0.003735464771365892 0.05999715599085838 -0.170087628064675  -311.514444108724 -1039.388851521889 147.5134005660575  468.6190640141842 405.5622579375759 -24.47176989980042  -187.8462044483826 1089.38032874591 1173.023195920848  350.5197141005113 -773.3423709289501 1066.758365383746  -228.3786033846964 112.1679418328379 -2372.530716935705  -481.5087605384859 206.3134473379185 1.898393953053564  92.78558746420225 1232.104554715859 -1018.945796871189  326.4964860073533 -607.1809601434587 -1595.234282972868  -253.756888857342 -114.6529695909555 2300.748641066745  244.4150512850657 914.2559955698802 1855.172539638404  -90.40175570075337 -1041.957300708637 -2016.184222586668  81.06240146038134 -1512.457316283975 9.767237258818112  194.2190425946224 398.1582208852427 -26
[...]
<PointData  Scalars="Pressure"> 
<DataArray  type="Float64"  Name="Pressure"  format="ascii">-1.4517704999986039e-04  1.9208852293282203e-03  -1.8343415768077229e-03  -9.1818972671648899e-04  -9.2136636430991663e-03  -9.7779593845157362e-03  -7.9418883685938163e-03  -5.6770829144622264e-03  -9.1764896899744347e-03  -3.7516798466492923e-03  -3.2636063316246106e-03  -2.2067655478028242e-03  2.8927913824975792e-03  -9.8595212492926347e-03  -1.8299898147123381e-03  -7.5259361274124794e-03  -7.3837588916938609e-03  -1.7366263569825882e-03  -3.0706383623577653e-04  -3.6831371983616803e-03  2.2109329255439354e-03  1.4132550783049231e-03  2.8322960751106848e-03  -8.5971311845308308e-04  6.8798757407255769e-03  2.0476159256435206e-03  9.0788021377423839e-03  4.3285629179735255e-03  6.9914160583191892e-03  2.8280591681652529e-03  7.1774279843015050e-03  2.2674774329031824e-03  -4.9643085802686497e-03  -3.6574198513224031e-03  -5.7954024229266111e-03  4.7754388544518685e-03  3.3696626402695321e-03  -2.6129506183227751e-04  4.7191057146347718e-03  -1.0360137313827896e-02  -2.8001487216109326e-03  -6.1437271668660634e-03  1.4786911366512449e-03  -4.5372832581926465e-03  -3.4688933860375234e-03  5.8141495170509466e-03  7.3331669962112128e-03  2.7585223146217039e-03  -6.9422433026152257e-04  5.5597928314572156e-04  2.9108084457194266e-03  8.5576186202117183e-03  7.4401170634008475e-03  1.0276539226543565e-02  8.3273597260292483e-03  7.6198838105996933e-03  5.6833963311210501e-03  1.0169272155772137e-02  4.6021973348281649e-03  4.7336350793912990e-03  4.8447510053663588e-03  8.2812934421061860e-04  -3.0252654526927779e-03  -3.6550608180509737e-03  -3.7556787767855310e-03  -6.7075652329569363e-03  -2.3305280631154674e-03  -9.0126851619804996e-03  -6.9378302447461329e-03  -7.6634536328001081e-03  -8.0998428951032340e-03  -2.2288360821260443e-03  3.2014165416515902e-03  3.0907238184772054e-03  -5.3281299602845038e-03  -4.7041216687546969e-03  -7.8558175994785564e-03  3.0174811102197186e-03  -6.6266951166125115e-03  4.8875441172002822e-03  -7.9507945714956171e-03  -3.1512102212108840e-03  4.8573202109373608e-04  -2.4587706758721468e-03  2.5866008760232983e-03  2.8842192878772853e-03  8.2154352961586047e-03  -2.0930082576975789e-03  -3.5862326341731285e-03  3.8964398563595985e-03  4.4653066897474055e-03  -1.7981482148436651e-03  4.5508095910237190e-03  1.7930014519491869e-03  -5.9077181528172113e-03  7.3063495673123631e-03  9.4161326169445742e-03  1.8543461158149028e-03  -1.7278058090812330e-03  4.1657951965552616e-03  7.6250161679886838e-03  6.2337644601496564e-03  6.8222022537401924e-04  2.3575429797148065e-03  1.1316380541357002e-02  2.4592959441879533e-03  6.3603240446191457e-03  -2.3960160016176257e-03  -4.7856826245576689e-03  -9.3304655850865899e-03  -1.0501252501565311e-02  -6.3217420302353871e-03  2.1240078254469784e-03  -1.0967190124797710e-03  9.0907544779109794e-03  4.1387026879738309e-03  6.7095178746386678e-03  -5.6596632378706699e-03  -1.1643864368890979e-03  1.0852080673395610e-02  5.5723583333325433e-03  -8.2640414074133962e-03  3.0983910701422841e-05  -5.6240588666366077e-04  -2.2360118661813111e-03  8.2491589172864251e-03  2.2217828220014221e-03  5.6167146475380337e-03  -5.3147121498757868e-04  -4.5885224426051897e-03  1.1857035066528502e-02  1.1340997322640038e-02  1.5186705090278090e-03  -8.6537449185941813e-03  -2.1518022312518115e-03  -2.7314905803986862e-03  2.9492423290931550e-03  -4.7244666055420374e-04  -7.7832838217452606e-03  2.6567965954703426e-03  2.4364349078295567e-03  7.8194389908785092e-03  -8.6970817507987143e-05  -5.3500347137119698e-03  -4.9062632055469691e-04  -2.6627620563675022e-03  -8.3759882564267262e-03  7.4384075548128009e-03  7.3651778092315122e-03  -2.9884409209590033e-03  -1.3416781445796291e-04  1.0363423726918249e-03  -2.2694278075547124e-03  8.4575766243311368e-03  -4.0669120167805325e-03  1.0682853065381245e-02  -5.1027373436779312e-03  -1.3796172790627871e-03  4.7348863827107015e-03  1.7284957138971983e-03  1.5444834772943195e-01  1.1303754647202231e-01  1.0960415185124228e-01  1.1376844071187393e-01  1.1280453727304438e-01  1.1199088454767292e-01  1.0891049810878273e-01  1.1388771942371274e-01  1.1037821124566859e-01  1.1263557355409415e-01  1.0434764471766610e-01  1.0431204061704917e-01  1.0487609496594237e-01  1.0140051821866397e-01  1.0063193512665052e-01  1.0436664839225962e-01  1.0150081763988833e-01  9.4164608730565855e-02  9.0798002264187216e-02  9.1804456438295906e-02  9.2693816932154019e-02  8.7485237236257271e-02  8.6566391887627228e-02  8.8083535076208863e-02  8.6071441750192296e-02  8.6788796985762251e-02  8.3975538645065587e-02  8.2251132618030992e-02  8.5851714166083740e-02  8.3155633318031927e-02  8.8082401130169213e-02  8.4488673137930223e-02  7.9264771642811357e-02  8.1062077523465406e-02  7.4115357813591645e-02  8.3844163103014888e-02  8.4198772577478209e-02  7.6299581206479977e-02  7.3912127366147565e-02  1.3648736457810182e-01  1.3423123518195598e-01  </DataArray> 
</PointData> 
</Piece>
</UnstructuredGrid>
</VTKFile>