<?xml version="1.0"?>
<VTKFile type="UnstructuredGrid"  version="0.1"  >
<UnstructuredGrid>
<Piece  NumberOfPoints="201" NumberOfCells="657">
<Points>
<DataArray  type="Float64"  NumberOfComponents="3"  format="ascii">-8.464852058660805e-05 0.0003177429498767776 5499.871091152405  -0.0004129209201976709 0.0005795337082750446 -5499.871327479656  309.0139524645577 0.0007025659885689896 -5230.684348635562  587.7772119870198 0.0008363297986088344 -4449.476141975078  809.0014656152114 9.903570092485831e-05 -3232.725128348041  951.0336012459834 -6.928480815955362e-05 -1699.540342442458  999.9744339420918 -0.0001496282156032733 -0.0001278341477580072  951.0337312219133 -0.0001348739764007021 1699.54035726504  809.0015868839243 0.0003729310388391636 3232.724756083078  587.7776181203175 0.000440049322478671 4449.47626255465  309.0143978509126 0.0004679287233480882 5230.684322386855  391.493142144555 -753.6316987285578 -4781.59392308832  388.9427915787604 585.3981078541109 4900.413694750893  951.8272284073889 -670.893526568177 -815.3044603228841  685.3126387702684 -732.0766828939121 3667.161706486097  865.7398699339254 678.5537872785053 2312.562006981741  862.140403977025 678.5456404401027 -2352.897212448675  437.148526271811 674.5590032740507 -4718.663616133368  150.6315660110231 -674.5535294299968 5230.685886173384  680.8712115160515 -674.565965557713 -3744.743546525508  473.9448461738665 -1323.522304877314 -3869.947219326081  704.1897173850771 -1297.268805724411 -2665.366593088299  482.8588073350385 -1854.425188876925 -2560.047125209144  680.3442928008437 -1740.373324408168 -1260.733960326728  426.9025224491303 -2207.81806409153 -1070.897900062073  607.8542336597253 -1981.391187750405 270.8953669237945  319.2885431360808 -2358.816227679134 488.7457619196591  463.121085090785 -2049.272550193112 1854.150543898792  166.830130032653 -2296.35637854388 1971.668053339571  296.3766267708544 -1873.1085309631 3257.63309122596  -11.51615931865164 -2012.031421499266 3263.914327695666  710.2241246154807 -1609.86797261889 1564.73169328958  680.8714344063047 674.5662468250814 3744.743607300299  689.8863852398276 1305.827130206456 2756.727169165384  835.4704067406494 1251.310371346602 1247.716914931628  110.8657735697677 -1494.986765054033 4365.827884788007  405.9801602507391 -1310.975228069316 4116.483875704373  473.8946500890796 1248.03945263218 3989.649140443388  456.6404389608477 1825.768041738766 2794.505771381084  953.6494267358307 -654.5439607949775 815.2008491822007  840.8222198936937 -1352.616695268519 94.40391033888845  867.6568939423931 -679.1590539536812 -2289.854375906956  150.6312511591897 674.5544440342252 -5230.686203264841  674.0940839819997 657.6438329210118 -3796.048960766544  684.6067424732597 1298.799491327411 -2812.051219912593  207.1727837038934 -2227.835789440496 -2220.636741653209  -144.9416399879964 -2323.634967363329 1866.554953561026  202.1918437238777 -1357.490544552739 -4482.59855381965  829.7615300603264 1266.229458493636 -1289.419836850382  620.5044379299228 1829.251917376884 -1552.022327547852  440.5897533546827 1780.287247419455 -3006.410985437734  347.8504830527087 2217.134305049009 -1673.258829535163  153.6761694589353 2081.897868367334 -2925.524090524563  44.98710790533904 2400.309542765415 -1518.382699786322  -157.5375883671468 2142.044374453086 -2700.543531038787  -259.9511725682964 2357.374851649046 -1145.127963929855  -458.1273649579378 2013.293733945273 -2069.85992041697  -49.99851736624588 2496.563125448685 101.4008188330975  -319.3807156162774 -1934.211540623575 3009.640357894001  -441.1579511663559 -2139.004451771836 1489.959376537942  -537.9031790064353 2092.222176073461 -559.3530331980377  -710.5419690275395 1636.588047284209 -1419.493665023922  -756.8678406171928 1632.957684733882 127.026803851333  -887.8276072047425 1077.390956634251 -887.2997535337438  -899.996294620342 1022.655837562307 827.9025103902093  -788.7323263794419 1021.17020616383 -2526.637196475255  -727.8317130048351 1511.061550435115 1781.76302387305  -939.2597415698265 446.6278049734068 -1611.339177314163  -831.4222321578532 840.6787994597494 2432.667177565873  -799.5173826075844 286.7152575305108 -3242.558693781049  -897.8043269176334 -324.3753442679503 -2314.37008043683  -618.5204896210854 1267.228611917354 3302.220728608246  -138.1271101681556 -1035.83822088614 4947.597996677865  -602.4829463974424 -1654.16347815959 2454.958012835496  -718.4496841413688 -439.4110691235217 -3701.370083388895  -776.1954223393104 -1031.344495970624 -2622.271807957771  -960.8177863908334 283.446502098933 1390.609558074867  -334.29637146896 1667.350784314134 -3662.527200347229  -684.1199014417647 541.1199208283093 3830.67335734374  215.061724288522 1684.786763359032 3887.488005623059  -925.7647894137277 -844.873529412443 -932.1402789049189  -582.0823285503826 175.5032785656688 -4455.370879493109  -453.4956295901956 964.2215892038273 4419.061332468807  -559.3448757270344 -1109.47762119168 -3850.641141708219  -585.686969722705 -1651.954330577782 -2581.824862600759  -493.6006585408284 1860.235780879201 2476.313774789907  -252.0333324037165 -2414.056873735251 353.8678666231241  -477.5975590842458 162.3488298532733 4818.827871444445  -705.694330888613 -234.5502757290762 3862.356060886114  -338.0634173265136 -1656.676633886014 -3675.484973344367  -339.1874609577172 -2112.02395391935 -2276.353841406506  -291.3074908678124 -1049.055552204905 -4728.167923896625  507.0244504399868 2153.778290711595 -155.1528732643973  -681.8546923059981 -1774.281860032766 974.9453440779221  -821.0057829551671 -1198.275765975794 1705.941684297119  179.0841894465913 2169.171193627134 2551.003901689997  -64.64551487820971 1956.356319300956 3405.869866695346  -22.39474184748721 1474.12462840596 4440.365121236366  -270.8904261909046 622.8128728161158 5113.859604263771  -451.762826120137 -1352.768261326757 3901.132180954094  235.7941994393609 1647.110395189439 -3929.036288335313  -560.5007779130337 -1997.293452379535 -1200.282095347897  -74.05118499266676 1263.567695713652 -4728.192473120527  -164.0905061070486 541.7713067445935 -5292.78620201205  -111.2719071821801 2335.257373023482 1866.260803542201  -211.2766911749596 -383.4613683771419 5309.112395585303  -72.26237772715496 -2048.635852235277 -3127.28671482407  -456.5041294256194 -616.2456307711415 4701.78873204844  -703.7617349617227 -992.0999108216329 3240.876927272645  -876.1403821180189 -476.8580413562734 2434.670569090233  -958.6231279472531 -619.0582746419497 771.698166252287  -995.6736957194076 -80.5211789477558 -477.7486354572419  -384.067732903052 1073.57567256929 -4495.40539897107  -582.5101781244655 1187.51360002252 -3627.652451581403  -85.04045635051631 -2353.012673264659 -1798.854224847353  -34.01757930885045 1847.131313423035 -3701.587566194155  398.7639044220721 2197.887798270088 1435.701762041279  861.8522467959933 -649.1536581876611 2395.832303766451  49.96576119576941 -707.9180192695803 -5267.606380979595  158.0692921137812 -2438.494274245724 -846.7092689198086  -304.5086960300601 1596.882044658032 3886.238529742888  955.8952658000782 629.0178430103125 -832.6869471100656  638.9043053248171 1812.637501856937 1414.441026440777  753.703289582089 1642.848278320149 -62.8545895897132  -763.474494392255 -1485.792790352827 -1390.427211701645  -331.3234487332482 2350.868596682422 427.9714103012893  -555.8588174248976 2027.375274400441 1005.764096922525  -54.23489119548673 -1528.379915859911 -4342.197101937181  -233.0230294376138 -278.9616788354804 -5313.13717126952  -491.2505597783086 -447.7148269279685 -4688.118524637499  231.0237628867251 2429.131739438824 -280.8529112136904  27.07236405716075 -2483.721570611738 610.9097909361407  552.1881966291246 -1579.548635320233 2991.831459681686  957.5861034706936 637.0653570209432 739.0490721183648  437.394901354596 -669.702309630935 4721.319870481017  -845.7823797916624 -1332.406753115328 135.7880899407528  -178.9932581458847 -1649.38476756047 4014.184906700598  487.2202518331814 1209.946185516638 -3997.87485820349  -856.7704652445113 199.265698199998 2802.011045826809  224.4894611099687 -1861.587152578398 -3457.30651378958  244.9419037365037 1200.464913440486 4632.423675958858  142.460250710062 2418.234572214547 1155.385065236322  -621.933800899238 1567.209156268822 -2581.073938581193  836.2851671791774 -1205.02455077735 -1437.274769352607  -15.30246059840823 650.2006748645617 5309.942397940061  757.4669263205313 -1172.785090772331 2497.308962847114  -970.898853683488 595.8175424709272 -125.0929581301643  -516.8880162530958 -2140.100116319068 53.03799469738059  -315.6623869016352 -2335.857726188213 -911.0848650070917  897.1004979329703 1104.401808597662 -38.2655289672936  -223.200958678955 1231.61843777225 4626.071462521788  277.7442390545717 1118.460653339718 -4675.575392940187  -337.1335251222424 183.647098758328 -5162.096070044333  -365.6121511785838 2187.345458324468 1746.827761795724  850.5285038595413 -1120.758914186426 1512.405479373423  -68.11509146985743 -2481.653901920227 -552.0258785263733  -641.3122088326681 649.8991911355639 -3970.318257061411  -438.2958916379345 552.3081612915532 -4791.79168845085  -279.6334444930947 2011.231397260642 2882.288192487306  -703.1540393874865 -1772.160557269041 -307.6085746373064  1.159051469282031e-05 5.732925506500053e-05 -0.0001635598860148461  -318.8658544714053 -978.1866426494486 152.3451242579287  482.1624112718534 381.4731406176414 -25.14225675047244  -192.0824929687176 1028.171993195825 1211.636182884915  359.3938535583998 -728.8582535337963 1102.310121748365  -234.1417276311067 106.6862357075356 -2448.921090373093  -495.9085522955899 194.1543297694752 2.025780298510345  94.74424988120278 1162.998540741266 -1052.106253320342  334.9407345951785 -573.1090157037435 -1647.646790067296  -260.5347038154717 -108.8942010715552 2375.215612768204  249.8350562787912 865.3565130833366 1915.17266682756  -92.25684616606233 -987.5343106665224 -2080.385017937031  82.52100553464221 -1426.267395275795 10.17324537259366  198.91958
[...]
<PointData  Vectors="Tidal Force"> 
<DataArray  type="Float64"  Name="Tidal Force"  NumberOfComponents="3" format="ascii">0.0000000000000000e+00 0.0000000000000000e+00 0.0000000000000000e+00  0.0000000000000000e+00 0.0000000000000000e+00 0.0000000000000000e+00  0.0000000000000000e+00 0.0000000000000000e+00 0.0000000000000000e+00  0.0000000000000000e+00 0.0000000000000000e+00 0.0000000000000000e+00  0.0000000000000000e+00 0.0000000000000000e+00 0.0000000000000000e+00  0.0000000000000000e+00 0.0000000000000000e+00 0.0000000000000000e+00  0.0000000000000000e+00 0.0000000000000000e+00 0.0000000000000000e+00  0.0000000000000000e+00 0.0000000000000000e+00 0.0000000000000000e+00  0.0000000000000000e+00 0.0000000000000000e+00 0.0000000000000000e+00  0.0000000000000000e+00 0.0000000000000000e+00 0.0000000000000000e+00  0.0000000000000000e+00 0.0000000000000000e+00 0.0000000000000000e+00  -7.0134476848952504e-23 -1.0007493185236911e-12 0.0000000000000000e+00  5.4478519628228128e-23 7.7735436038891765e-13 0.0000000000000000e+00  -6.2434227493304847e-23 -8.9087440904481654e-13 0.0000000000000000e+00  -6.8128561262598143e-23 -9.7212689562626903e-13 0.0000000000000000e+00  6.3147749536882592e-23 9.0105565984960853e-13 0.0000000000000000e+00  6.3146910592680860e-23 9.0104368894919133e-13 0.0000000000000000e+00  6.2775677783412014e-23 8.9574656551459939e-13 0.0000000000000000e+00  -6.2775677783412014e-23 -8.9574656551459939e-13 0.0000000000000000e+00  -6.2776516727613746e-23 -8.9575853641501659e-13 0.0000000000000000e+00  -1.2316959297809126e-22 -1.7575077447448904e-12 0.0000000000000000e+00  -1.2072616799053077e-22 -1.7226424972799208e-12 0.0000000000000000e+00  -1.7257627543471532e-22 -2.4624920266618861e-12 0.0000000000000000e+00  -1.6196195339433245e-22 -2.3110361945840168e-12 0.0000000000000000e+00  -2.0546372708702713e-22 -2.9317632939148538e-12 0.0000000000000000e+00  -1.8439238504408716e-22 -2.6310961735873324e-12 0.0000000000000000e+00  -2.1951604246613026e-22 -3.1322758759022316e-12 0.0000000000000000e+00  -1.9070963488317053e-22 -2.7212370537285236e-12 0.0000000000000000e+00  -2.1370341756439199e-22 -3.0493354923619603e-12 0.0000000000000000e+00  -1.7431540676491717e-22 -2.4873077032266524e-12 0.0000000000000000e+00  -1.8724395638579292e-22 -2.6717852641052485e-12 0.0000000000000000e+00  -1.4981781660208123e-22 -2.1377514255954621e-12 0.0000000000000000e+00  6.2776097255512880e-23 8.9575255096480799e-13 0.0000000000000000e+00  1.2152316498218140e-22 1.7340148526762199e-12 0.0000000000000000e+00  1.1644881097797213e-22 1.6616088615030464e-12 0.0000000000000000e+00  -1.3912631169513854e-22 -1.9851942706792148e-12 0.0000000000000000e+00  -1.2200220212137352e-22 -1.7408502368144164e-12 0.0000000000000000e+00  1.1614511317694316e-22 1.6572753955520355e-12 0.0000000000000000e+00  1.6990969128949265e-22 2.4244425196859526e-12 0.0000000000000000e+00  -6.0912802183453895e-23 -8.6916518113830251e-13 0.0000000000000000e+00  -1.2587728538919906e-22 -1.7961438258412643e-12 0.0000000000000000e+00  -6.3203958798399008e-23 -9.0185771017755800e-13 0.0000000000000000e+00  6.2775677783412014e-23 8.9574656551459939e-13 0.0000000000000000e+00  6.1201398988851587e-23 8.7328317088180449e-13 0.0000000000000000e+00  1.2086878850482615e-22 1.7246775503508375e-12 0.0000000000000000e+00  -2.0732702215908609e-22 -2.9583506637413592e-12 0.0000000000000000e+00  -2.1624206271884962e-22 -3.0855594370242767e-12 0.0000000000000000e+00  -1.2633115420233902e-22 -1.8026200829669461e-12 0.0000000000000000e+00  1.1783768310394856e-22 1.6814266871436497e-12 0.0000000000000000e+00  1.7023394322346422e-22 2.4290692726971840e-12 0.0000000000000000e+00  1.6567721779172697e-22 2.3640493270813963e-12 0.0000000000000000e+00  2.0633119539162368e-22 2.9441412049461938e-12 0.0000000000000000e+00  1.9374577394925855e-22 2.7645597423382145e-12 0.0000000000000000e+00  2.2337728315462710e-22 3.1873719450721962e-12 0.0000000000000000e+00  1.9934237071904941e-22 2.8444176190210682e-12 0.0000000000000000e+00  2.1938223086595311e-22 3.1303665172856952e-12 0.0000000000000000e+00  1.8736098910193531e-22 2.6734552047134422e-12 0.0000000000000000e+00  2.3233552934078013e-22 3.3151972197265978e-12 0.0000000000000000e+00  -1.8000177056429395e-22 -2.5684464662541418e-12 0.0000000000000000e+00  -1.9905964652306390e-22 -2.8403834255804865e-12 0.0000000000000000e+00  1.9470636506024798e-22 2.7782664233158591e-12 0.0000000000000000e+00  1.5230402774393034e-22 2.1732271889817067e-12 0.0000000000000000e+00  1.5196593323063011e-22 2.1684029161135922e-12 0.0000000000000000e+00  1.0026431891015313e-22 1.4306722361054640e-12 0.0000000000000000e+00  9.5170669189303892e-23 1.3579909142226960e-12 0.0000000000000000e+00  9.5032243396017200e-23 1.3560157156538651e-12 0.0000000000000000e+00  1.4062256867893736e-22 2.0065443715732138e-12 0.0000000000000000e+00  4.1563812586681028e-23 5.9307431936720435e-13 0.0000000000000000e+00  7.8235322060929818e-23 1.1163403329517582e-12 0.0000000000000000e+00  2.6682620336261229e-23 3.8073448776767522e-13 0.0000000000000000e+00  -3.0186890266918773e-23 -4.3073693881013957e-13 0.0000000000000000e+00  1.1793080591034142e-22 1.6827554570899540e-12 0.0000000000000000e+00  -9.6397205612244102e-23 -1.3754923706325792e-12 0.0000000000000000e+00  -1.5393996893731847e-22 -2.1965704447951628e-12 0.0000000000000000e+00  -4.0892657225291031e-23 -5.8349759903347885e-13 0.0000000000000000e+00  -9.5978991927677965e-23 -1.3695248767746265e-12 0.0000000000000000e+00  2.6378083591030516e-23 3.7638905091624726e-13 0.0000000000000000e+00  1.5516734430446042e-22 2.2140838721054632e-12 0.0000000000000000e+00  5.0357206237192649e-23 7.1854731208963437e-13 0.0000000000000000e+00  1.5678986239062074e-22 2.2372355935122445e-12 0.0000000000000000e+00  -7.8625850586838620e-23 -1.1219127870959447e-12 0.0000000000000000e+00  1.6332565719425676e-23 2.3304948932121054e-13 0.0000000000000000e+00  8.9732213401540535e-23 1.2803895522684763e-12 0.0000000000000000e+00  -1.0325012132413690e-22 -1.4732766706901255e-12 0.0000000000000000e+00  -1.5373400813579191e-22 -2.1936315887427507e-12 0.0000000000000000e+00  1.7311739444483601e-22 2.4702132574309521e-12 0.0000000000000000e+00  -2.2465709253437765e-22 -3.2056335536585693e-12 0.0000000000000000e+00  1.5108965601191531e-23 2.1558993106278721e-13 0.0000000000000000e+00  -2.1827650240806308e-23 -3.1145888705358821e-13 0.0000000000000000e+00  -1.5417361489750238e-22 -2.1999043405613409e-12 0.0000000000000000e+00  -1.9654952547146528e-22 -2.8045664915323528e-12 0.0000000000000000e+00  -9.7627517284092166e-23 -1.3930476960943400e-12 0.0000000000000000e+00  2.0043467606971165e-22 2.8600037313642065e-12 0.0000000000000000e+00  -1.6511806148126891e-22 -2.3560707219533610e-12 0.0000000000000000e+00  -1.1151372171125129e-22 -1.5911900397991209e-12 0.0000000000000000e+00  2.0186759276627931e-22 2.8804500292767107e-12 0.0000000000000000e+00  1.8206179805166038e-22 2.5978410122284706e-12 0.0000000000000000e+00  1.3718499481231795e-22 1.9574936071139136e-12 0.0000000000000000e+00  5.7960138065438758e-23 8.2703359712011882e-13 0.0000000000000000e+00  -1.2589112796852772e-22 -1.7963413456981474e-12 0.0000000000000000e+00  1.5328349509945885e-22 2.1872032152187371e-12 0.0000000000000000e+00  -1.8587186314385124e-22 -2.6522068564729887e-12 0.0000000000000000e+00  1.1759061403653687e-22 1.6779012569707969e-12 0.0000000000000000e+00  5.0418449163919487e-23 7.1942118782008684e-13 0.0000000000000000e+00  2.1732388126699018e-22 3.1009959131122008e-12 0.0000000000000000e+00  -3.5685750037207224e-23 -5.0920020559439445e-13 0.0000000000000000e+00  -1.9065006984484715e-22 -2.7203871197989054e-12 0.0000000000000000e+00  -5.7348967214472989e-23 -8.1831279616621999e-13 0.0000000000000000e+00  -9.2327067817514623e-23 -1.3174155472587425e-12 0.0000000000000000e+00  -4.4377631439308607e-23 -6.3322471936634861e-13 0.0000000000000000e+00  -5.7610717805415089e-23 -8.2204771709637297e-13 0.0000000000000000e+00  -7.4938690820202309e-24 -1.0693006797625402e-13 0.0000000000000000e+00  9.9909445512818166e-23 1.4256085452290068e-12 0.0000000000000000e+00  1.1051244180647758e-22 1.5769027701512442e-12 0.0000000000000000e+00  -2.1897576240021131e-22 -3.1245666160335826e-12 0.0000000000000000e+00  1.7189798904761054e-22 2.4528135536746145e-12 0.0000000000000000e+00  2.0453921057671237e-22 2.9185713616551466e-12 0.0000000000000000e+00  -6.0411533022915726e-23 -8.6201256813905123e-13 0.0000000000000000e+00  -6.5879771329840761e-23 -9.4003889705807992e-13 0.0000000000000000e+00  -2.2693105079318717e-22 -3.2380806792392730e-12 0.0000000000000000e+00  1.4860931747947836e-22 2.1205073435445475e-12 0.0000000000000000e+00  5.8537751148335020e-23 8.3527556205733126e-13 0.0000000000000000e+00  1.6868734958756111e-22 2.4070009177781549e-12 0.0000000000000000e+00  1.5288667449203702e-22 2.1815409793214219e-12 0.0000000000000000e+00  -1.3827058860936626e-22 -1.9729839522537144e-12 0.0000000000000000e+00  2.1877651315229862e-22 3.1217235271845078e-12 0.0000000000000000e+00  1.8867183941715014e-22 2.6921597366152495e-12 0.0000000000000000e+00  -1.4223376101837424e-22 -2.0295344858243638e-12 0.0000000000000000e+00  -2.5960708850666107e-23 -3.7043352795871169e-13 0.0000000000000000e+00  -4.1664905362990394e-23 -5.9451681286747171e-13 0.0000000000000000e+00  2.2605938776758189e-22 3.2256429137058468e-12 0.0000000000000000e+00  -2.3114003385330418e-22 -3.2981386866321490e-12 0.0000000000000000e+00  -1.4699602777953716e-22 -2.0974873020423548e-12 0.0000000000000000e+00  5.9286508848385736e-23 8.4595959067964383e-13 0.0000000000000000e+00  -6.2323906330776369e-23 -8.8930023563996039e-13 0.0000000000000000e+00  -1.2399637248890358e-22 -1.7693050671059986e-12 0.0000000000000000e+00  -1.5349490903829670e-22 -2.1902198821238606e-12 0.0000000000000000e+00  1.1259973498040047e-22 1.6066863703891305e-12 0.0000000000000000e+00  1.8544022635205729e-23 2.6460478282083611e-13 0.0000000000000000e+00  -1.7324323607509662e-22 -2.4720088924935256e-12 0.0000000000000000e+00  1.1171758515227348e-22 1.5940989686004900e-12 0.0000000000000000e+00  2.2504594317188296e-22 3.2111820660019213e-12 0.0000000000000000e+00  1.4584793263945940e-22 2.0811051248214758e-12 0.0000000000000000e+00  -1.1214209091835266e-22 -1.6001562442115714e-12 0.0000000000000000e+00  6.0509270022418152e-23 8.6340717803764999e-13 0.0000000000000000e+00  -1.0914160698083850e-22 -1.5573423188696098e-12 0.0000000000000000e+00  5.5448339125436679e-23 7.9119272127115102e-13 0.0000000000000000e+00  -1.9916157824357500e-22 -2.8418378899811710e-12 0.0000000000000000e+00  -2.1737925158430482e-22 -3.1017859925397331e-12 0.0000000000000000e+00  1.0277779573855867e-22 1.4665370537552661e-12 0.0000000000000000e+00  1.1461697631347830e-22 1.6354704004421843e-12 0.0000000000000000e+00  1.0408612922116830e-22 1.4852056729558223e-12 0.0000000000000000e+00  1.7090551805695507e-23 2.4386519784811181e-13 0.0000000000000000e+00  2.0355890427698209e-22 2.9045833645176987e-12 0.0000000000000000e+00  -1.0430005999261138e-22 -1.4882582525621974e-12 0.0000000000000000e+00  -2.3094707668690458e-22 -3.2953853795362031e-12 0.0000000000000000e+00  6.0481165391659950e-23 8.6300615287367530e-13 0.0000000000000000e+00  5.1398755463649759e-23 7.3340918495753471e-13 0.0000000000000000e+00  1.8716887087973739e-22 2.6707138685179129e-12 0.0000000000000000e+00  -1.6492049012175974e-22 -2.3532515749051206e-12 0.0000000000000000e+00  0.0000000000000000e+00 0.0000000000000000e+00 0.0000000000000000e+00  -9.1032157442132799e-23 -1.2989384624648610e-12 0.0000000000000000e+00  3.5500343368623240e-23 5.0655463660220283e-13 0.0000000000000000e+00  9.5683683568666369e-23 1.3653111198277875e-12 0.0000000000000000e+00  -6.7829058182577852e-23 -9.6785328417734396e-13 0.0000000000000000e+00  9.9284851554624598e-24 1.4166962098684334e-13 0.0000000000000000e+00  1.8068341272820566e-23 2.5781728228430817e-13 0.0000000000000000e+00  1.0823135252195330e-22 1.5443538919169946e-12 0.0000000000000000e+00  -5.3335038681259902e-23 -7.6103802312033276e-13 0.0000000000000000e+00  -1.0133607012787279e-23 -1.4459650613883820e-13 0.0000000000000000e+00  8.0531512341085358e-23 1.1491046873935166e-12 0.0000000000000000e+00  -9.1901723107233715e-23 -1.3113463007472441e-12 0.0000000000000000e+00  -1.3273104004529354e-22 -1.8939400967992274e-12 0.0000000000000000e+00  3.5248240636001113e-23 5.0295738102684714e-13 0.0000000000000000e+00  -1.0336379826347231e-22 -1.4748987276966502e-12 0.0000000000000000e+00  -1.2613526073123333e-23 -1.7998248777195401e-13 0.0000000000000000e+00  1.0112423671693407e-22 1.4429424090330499e-12 0.0000000000000000e+00  -4.8301373470834899e-23 -6.8921262061739138e-13 0.0000000000000000e+00  6.0622108017551845e-24 8.6501726414375762e-14 0.0000000000000000e+00  6.2708562247273010e-23 8.9478889348122682e-13 0.0000000000000000e+00  1.4204919329399197e-22 2.0269008877325891e-12 0.0000000000000000e+00  8.4034943327541164e-23 1.1990951675355638e-12 0.0000000000000000e+00  1.1800211616748912e-22 1.6837729836254124e-12 0.0000000000000000e+00  5.3397959496390222e-23 7.6193584065161953e-13 0.0000000000000000e+00  -4.4292478602832251e-23 -6.3200967297400715e-13 0.0000000000000000e+00  9.3395043786326453e-23 1.3326545034897833e-12 0.0000000000000000e+00  -4.9080752634249037e-23 -7.0033358710493013e-13 0.0000000000000000e+00  8.4066403735106318e-24 1.1995440763012071e-13 0.0000000000000000e+00  -1.1611029699257105e-22 -1.6567786031847236e-12 0.0000000000000000e+00  4.2858722962062858e-23 6.1155140416108598e-13 0.0000000000000000e+00  -4.5617171497375765e-23 -6.5091172473269786e-13 0.0000000000000000e+00  -1.4589071879374802e-22 -2.0817156407427508e-12 0.0000000000000000e+00  -1.5360690808922866e-22 -2.1918179973295511e-12 0.0000000000000000e+00  -1.3543369879119089e-22 -1.9325043524930983e-12 0.0000000000000000e+00  1.1562874302077372e-22 1.6499073063452755e-12 0.0000000000000000e+00  -1.3192439519532295e-22 -1.8824300760481313e-12 0.0000000000000000e+00  1.5565854613457771e-22 2.2210928342997083e-12 0.0000000000000000e+00  -5.8763846610703281e-23 -8.3850171971975506e-13 0.0000000000000000e+00  7.5566221083101957e-23 1.0782549132745734e-12 0.0000000000000000e+00  6.9790509726240128e-23 9.9584124935265689e-13 0.0000000000000000e+00  3.7580086044730503e-23 5.3623049873633481e-13 0.0000000000000000e+00  </DataArray> 
</PointData> 
</Piece>
</UnstructuredGrid>
</VTKFile>