<?xml version="1.0"?>
<VTKFile type="UnstructuredGrid"  version="0.1"  >
<UnstructuredGrid>
<Piece  NumberOfPoints="201" NumberOfCells="657">
<Points>
<DataArray  type="Float64"  NumberOfComponents="3"  format="ascii">-8.464852058660805e-05 0.0003177429498767776 5499.871091152405  -0.0004129209201976709 0.0005795337082750446 -5499.871327479656  309.0139524645577 0.0007025659885689896 -5230.684348635562  587.7772119870198 0.0008363297986088344 -4449.476141975078  809.0014656152114 9.903570092485831e-05 -3232.725128348041  951.0336012459834 -6.928480815955362e-05 -1699.540342442458  999.9744339420918 -0.0001496282156032733 -0.0001278341477580072  951.0337312219133 -0.0001348739764007021 1699.54035726504  809.0015868839243 0.0003729310388391636 3232.724756083078  587.7776181203175 0.000440049322478671 4449.47626255465  309.0143978509126 0.0004679287233480882 5230.684322386855  391.493142144555 -753.6316987285578 -4781.59392308832  388.9427915787604 585.3981078541109 4900.413694750893  951.8272284073889 -670.893526568177 -815.3044603228841  685.3126387702684 -732.0766828939121 3667.161706486097  865.7398699339254 678.5537872785053 2312.562006981741  862.140403977025 678.5456404401027 -2352.897212448675  437.148526271811 674.5590032740507 -4718.663616133368  150.6315660110231 -674.5535294299968 5230.685886173384  680.8712115160515 -674.565965557713 -3744.743546525508  473.9448461738665 -1323.522304877314 -3869.947219326081  704.1897173850771 -1297.268805724411 -2665.366593088299  482.8588073350385 -1854.425188876925 -2560.047125209144  680.3442928008437 -1740.373324408168 -1260.733960326728  426.9025224491303 -2207.81806409153 -1070.897900062073  607.8542336597253 -1981.391187750405 270.8953669237945  319.2885431360808 -2358.816227679134 488.7457619196591  463.121085090785 -2049.272550193112 1854.150543898792  166.830130032653 -2296.35637854388 1971.668053339571  296.3766267708544 -1873.1085309631 3257.63309122596  -11.51615931865164 -2012.031421499266 3263.914327695666  710.2241246154807 -1609.86797261889 1564.73169328958  680.8714344063047 674.5662468250814 3744.743607300299  689.8863852398276 1305.827130206456 2756.727169165384  835.4704067406494 1251.310371346602 1247.716914931628  110.8657735697677 -1494.986765054033 4365.827884788007  405.9801602507391 -1310.975228069316 4116.483875704373  473.8946500890796 1248.03945263218 3989.649140443388  456.6404389608477 1825.768041738766 2794.505771381084  953.6494267358307 -654.5439607949775 815.2008491822007  840.8222198936937 -1352.616695268519 94.40391033888845  867.6568939423931 -679.1590539536812 -2289.854375906956  150.6312511591897 674.5544440342252 -5230.686203264841  674.0940839819997 657.6438329210118 -3796.048960766544  684.6067424732597 1298.799491327411 -2812.051219912593  207.1727837038934 -2227.835789440496 -2220.636741653209  -144.9416399879964 -2323.634967363329 1866.554953561026  202.1918437238777 -1357.490544552739 -4482.59855381965  829.7615300603264 1266.229458493636 -1289.419836850382  620.5044379299228 1829.251917376884 -1552.022327547852  440.5897533546827 1780.287247419455 -3006.410985437734  347.8504830527087 2217.134305049009 -1673.258829535163  153.6761694589353 2081.897868367334 -2925.524090524563  44.98710790533904 2400.309542765415 -1518.382699786322  -157.5375883671468 2142.044374453086 -2700.543531038787  -259.9511725682964 2357.374851649046 -1145.127963929855  -458.1273649579378 2013.293733945273 -2069.85992041697  -49.99851736624588 2496.563125448685 101.4008188330975  -319.3807156162774 -1934.211540623575 3009.640357894001  -441.1579511663559 -2139.004451771836 1489.959376537942  -537.9031790064353 2092.222176073461 -559.3530331980377  -710.5419690275395 1636.588047284209 -1419.493665023922  -756.8678406171928 1632.957684733882 127.026803851333  -887.8276072047425 1077.390956634251 -887.2997535337438  -899.996294620342 1022.655837562307 827.9025103902093  -788.7323263794419 1021.17020616383 -2526.637196475255  -727.8317130048351 1511.061550435115 1781.76302387305  -939.2597415698265 446.6278049734068 -1611.339177314163  -831.4222321578532 840.6787994597494 2432.667177565873  -799.5173826075844 286.7152575305108 -3242.558693781049  -897.8043269176334 -324.3753442679503 -2314.37008043683  -618.5204896210854 1267.228611917354 3302.220728608246  -138.1271101681556 -1035.83822088614 4947.597996677865  -602.4829463974424 -1654.16347815959 2454.958012835496  -718.4496841413688 -439.4110691235217 -3701.370083388895  -776.1954223393104 -1031.344495970624 -2622.271807957771  -960.8177863908334 283.446502098933 1390.609558074867  -334.29637146896 1667.350784314134 -3662.527200347229  -684.1199014417647 541.1199208283093 3830.67335734374  215.061724288522 1684.786763359032 3887.488005623059  -925.7647894137277 -844.873529412443 -932.1402789049189  -582.0823285503826 175.5032785656688 -4455.370879493109  -453.4956295901956 964.2215892038273 4419.061332468807  -559.3448757270344 -1109.47762119168 -3850.641141708219  -585.686969722705 -1651.954330577782 -2581.824862600759  -493.6006585408284 1860.235780879201 2476.313774789907  -252.0333324037165 -2414.056873735251 353.8678666231241  -477.5975590842458 162.3488298532733 4818.827871444445  -705.694330888613 -234.5502757290762 3862.356060886114  -338.0634173265136 -1656.676633886014 -3675.484973344367  -339.1874609577172 -2112.02395391935 -2276.353841406506  -291.3074908678124 -1049.055552204905 -4728.167923896625  507.0244504399868 2153.778290711595 -155.1528732643973  -681.8546923059981 -1774.281860032766 974.9453440779221  -821.0057829551671 -1198.275765975794 1705.941684297119  179.0841894465913 2169.171193627134 2551.003901689997  -64.64551487820971 1956.356319300956 3405.869866695346  -22.39474184748721 1474.12462840596 4440.365121236366  -270.8904261909046 622.8128728161158 5113.859604263771  -451.762826120137 -1352.768261326757 3901.132180954094  235.7941994393609 1647.110395189439 -3929.036288335313  -560.5007779130337 -1997.293452379535 -1200.282095347897  -74.05118499266676 1263.567695713652 -4728.192473120527  -164.0905061070486 541.7713067445935 -5292.78620201205  -111.2719071821801 2335.257373023482 1866.260803542201  -211.2766911749596 -383.4613683771419 5309.112395585303  -72.26237772715496 -2048.635852235277 -3127.28671482407  -456.5041294256194 -616.2456307711415 4701.78873204844  -703.7617349617227 -992.0999108216329 3240.876927272645  -876.1403821180189 -476.8580413562734 2434.670569090233  -958.6231279472531 -619.0582746419497 771.698166252287  -995.6736957194076 -80.5211789477558 -477.7486354572419  -384.067732903052 1073.57567256929 -4495.40539897107  -582.5101781244655 1187.51360002252 -3627.652451581403  -85.04045635051631 -2353.012673264659 -1798.854224847353  -34.01757930885045 1847.131313423035 -3701.587566194155  398.7639044220721 2197.887798270088 1435.701762041279  861.8522467959933 -649.1536581876611 2395.832303766451  49.96576119576941 -707.9180192695803 -5267.606380979595  158.0692921137812 -2438.494274245724 -846.7092689198086  -304.5086960300601 1596.882044658032 3886.238529742888  955.8952658000782 629.0178430103125 -832.6869471100656  638.9043053248171 1812.637501856937 1414.441026440777  753.703289582089 1642.848278320149 -62.8545895897132  -763.474494392255 -1485.792790352827 -1390.427211701645  -331.3234487332482 2350.868596682422 427.9714103012893  -555.8588174248976 2027.375274400441 1005.764096922525  -54.23489119548673 -1528.379915859911 -4342.197101937181  -233.0230294376138 -278.9616788354804 -5313.13717126952  -491.2505597783086 -447.7148269279685 -4688.118524637499  231.0237628867251 2429.131739438824 -280.8529112136904  27.07236405716075 -2483.721570611738 610.9097909361407  552.1881966291246 -1579.548635320233 2991.831459681686  957.5861034706936 637.0653570209432 739.0490721183648  437.394901354596 -669.702309630935 4721.319870481017  -845.7823797916624 -1332.406753115328 135.7880899407528  -178.9932581458847 -1649.38476756047 4014.184906700598  487.2202518331814 1209.946185516638 -3997.87485820349  -856.7704652445113 199.265698199998 2802.011045826809  224.4894611099687 -1861.587152578398 -3457.30651378958  244.9419037365037 1200.464913440486 4632.423675958858  142.460250710062 2418.234572214547 1155.385065236322  -621.933800899238 1567.209156268822 -2581.073938581193  836.2851671791774 -1205.02455077735 -1437.274769352607  -15.30246059840823 650.2006748645617 5309.942397940061  757.4669263205313 -1172.785090772331 2497.308962847114  -970.898853683488 595.8175424709272 -125.0929581301643  -516.8880162530958 -2140.100116319068 53.03799469738059  -315.6623869016352 -2335.857726188213 -911.0848650070917  897.1004979329703 1104.401808597662 -38.2655289672936  -223.200958678955 1231.61843777225 4626.071462521788  277.7442390545717 1118.460653339718 -4675.575392940187  -337.1335251222424 183.647098758328 -5162.096070044333  -365.6121511785838 2187.345458324468 1746.827761795724  850.5285038595413 -1120.758914186426 1512.405479373423  -68.11509146985743 -2481.653901920227 -552.0258785263733  -641.3122088326681 649.8991911355639 -3970.318257061411  -438.2958916379345 552.3081612915532 -4791.79168845085  -279.6334444930947 2011.231397260642 2882.288192487306  -703.1540393874865 -1772.160557269041 -307.6085746373064  1.159051469282031e-05 5.732925506500053e-05 -0.0001635598860148461  -318.8658544714053 -978.1866426494486 152.3451242579287  482.1624112718534 381.4731406176414 -25.14225675047244  -192.0824929687176 1028.171993195825 1211.636182884915  359.3938535583998 -728.8582535337963 1102.310121748365  -234.1417276311067 106.6862357075356 -2448.921090373093  -495.9085522955899 194.1543297694752 2.025780298510345  94.74424988120278 1162.998540741266 -1052.106253320342  334.9407345951785 -573.1090157037435 -1647.646790067296  -260.5347038154717 -108.8942010715552 2375.215612768204  249.8350562787912 865.3565130833366 1915.17266682756  -92.25684616606233 -987.5343106665224 -2080.385017937031  82.52100553464221 -1426.267395275795 10.17324537259366  198.91958
[...]
<PointData  Vectors="Forcing"> 
<DataArray  type="Float64"  Name="Forcing"  NumberOfComponents="3" format="ascii">-2.8764599102537048e-05 -3.0888742821934402e-06 -4.8000398960137599e-05  -2.2566834637302963e-05 -1.6481042163873981e-06 5.2643057998456973e-05  -7.1160456434527628e-05 4.8031872161299872e-07 4.9681808372945521e-05  -1.5905564511467968e-04 4.1293572126274202e-06 4.6551560969602200e-05  -1.4756740726480408e-04 -1.2043090130336702e-06 2.1652441507386374e-05  -2.5758915115063765e-04 8.3024801800631508e-06 1.7396350430221432e-05  -2.7975892158977114e-04 -1.3736536451306747e-06 2.8182614684798113e-06  -2.7708001463036807e-04 -9.1777059533837857e-06 -1.4845010635990330e-05  -1.6793981627020795e-04 1.9687574633801535e-06 -2.4942697578094331e-05  -1.5043620680790627e-04 4.6809397154005773e-07 -4.2068263273903950e-05  -7.0257529507082144e-05 9.4980538640172516e-06 -4.1467756744314674e-05  -9.5395999820131083e-05 1.6814780385780304e-05 4.4758236204386448e-05  -1.0438692918437580e-04 -1.7184478702738196e-05 -5.0463127975319789e-05  -2.3360582197322878e-04 1.3446968992325650e-05 5.7203686377797683e-06  -1.6269851594631708e-04 1.5938217724992385e-05 -3.7945522154403127e-05  -2.0755038662817013e-04 -1.3725316970957880e-05 -2.4031998814610709e-05  -2.1374675613252994e-04 -1.7236745023942505e-05 2.5459073585176372e-05  -1.0904532523203657e-04 -1.4331424294098232e-05 4.8122987239719958e-05  -3.9151579415162156e-05 1.5383355884338656e-05 -4.7733475103849178e-05  -1.7220208586534995e-04 2.0314931588542235e-05 3.7408900247207833e-05  -1.2447632343151821e-04 3.3570322980377441e-05 3.8721395779050108e-05  -1.9000503585928896e-04 3.9637140663197222e-05 2.5936377519177659e-05  -1.3073751693561263e-04 4.9272018215073647e-05 2.2196664512117247e-05  -1.5943043090933633e-04 3.5481051193596794e-05 8.8295347292460487e-06  -1.0323996676899303e-04 4.6887441716830736e-05 1.0388811570016022e-05  -1.4768123749499785e-04 4.4798604384657054e-05 -5.1216849039414860e-06  -9.5474088171438305e-05 5.4793933881636372e-05 -5.5308239441851369e-06  -1.1215897740284921e-04 4.8538349918456449e-05 -1.8560479884817405e-05  -3.5807518566828331e-05 4.4302489908435844e-05 -1.8039591641074790e-05  -5.2109460453448914e-05 2.0270345057606221e-05 -2.0357027546895160e-05  7.2651597778044962e-06 4.7743097231212123e-05 -2.9967968539164461e-05  -1.9174779396925469e-04 5.0245640465290256e-05 -1.6792244340956923e-05  -1.7253590811243163e-04 -1.8128752431604456e-05 -3.3569198604603578e-05  -1.5749677216477350e-04 -2.5969480368221320e-05 -2.3064415140653704e-05  -2.1090990305679962e-04 -2.3914631527229472e-05 -1.5375412703918130e-05  -2.2848312776345150e-05 3.6842264057041766e-05 -4.5620860121381644e-05  -9.9079436948144081e-05 2.9706870805496037e-05 -4.1134115517183814e-05  -1.3847318173628231e-04 -3.4132931914557700e-05 -3.8366032353240650e-05  -1.3273417964385464e-04 -4.5070456877879334e-05 -2.3418698752625688e-05  -2.2541045387488695e-04 3.8827765801578824e-06 -7.5792725184191653e-06  -2.1431831786783756e-04 3.3313794031915303e-05 -2.3110193783141177e-06  -2.2227657969348382e-04 1.1427186141235686e-05 2.3848355920079368e-05  -3.3710490262938042e-05 -2.3624112973197426e-05 5.6925557220801714e-05  -1.6405280905168413e-04 -1.3282288798972100e-05 3.5202550638939629e-05  -1.6013671264207546e-04 -2.5019835014949105e-05 2.4094517531606163e-05  -4.8016458166198613e-05 2.7259049762974063e-05 1.8589305119318975e-05  2.2666474876658656e-05 5.0145222639226155e-05 -1.8319150099718603e-05  -5.1151002392585098e-05 3.0546137942157753e-05 4.2248421739115506e-05  -2.3985228928220418e-04 -3.1243205415788328e-05 1.5285348094989862e-05  -1.5706106978617657e-04 -2.9361287790474681e-05 1.2858556826199012e-05  -1.0613592991198795e-04 -4.1716850851013999e-05 2.7934965289983376e-05  -1.1964683858553966e-04 -5.1642765418950923e-05 1.6740886494458752e-05  -3.5537992112402135e-05 -4.6481734942522243e-05 2.9546059803992052e-05  -1.4783419363465595e-05 -5.7761120943720511e-05 1.6612986760875849e-05  4.1317364795481092e-05 -4.9349675196050551e-05 2.2974703932249836e-05  5.4605552448091393e-05 -3.5226151376942852e-05 7.7496410476277579e-06  1.1722530261147608e-04 -5.1142211762729177e-05 2.1829127802196161e-05  1.0692934538934379e-05 -4.9648608302650238e-05 -1.7524227830105645e-06  7.6289983978944725e-05 3.9831173680902680e-05 -2.5050786759868414e-05  8.5178243194324369e-05 3.9904521637317484e-05 -1.3518038537801781e-05  1.4074639269236208e-04 -4.6559836352722205e-05 5.4297975506703909e-06  2.0118391178273697e-04 -3.9644828405058508e-05 1.4022822142833532e-05  1.4193688879376935e-04 -1.7535219975696439e-05 -3.2183171525047649e-06  2.4563108573331639e-04 -3.1096443031854660e-05 7.6242199719503374e-06  2.5437317799525581e-04 -2.7127858083317769e-05 -1.0164415199992939e-05  1.6911383382554640e-04 -9.5928888467704329e-06 2.0233686580146598e-05  1.9928356078522752e-04 -2.3438898658186103e-05 -1.6068525130535084e-05  2.4730324631275750e-04 -7.6634835960743481e-06 1.6352110628296121e-05  2.0775899797568232e-04 -1.5960483421229313e-05 -2.3032084551560288e-05  2.0848455470573221e-04 4.3666184320498384e-07 2.7020028832568930e-05  2.4611308373093512e-04 5.2682347087921731e-06 2.0258485277127769e-05  1.5784906181915158e-04 -2.9785359266803671e-05 -2.9330998038653748e-05  4.8771043162502473e-05 2.0935246210290486e-05 -4.2470028975303099e-05  1.4641435639074324e-04 4.0086872573928228e-05 -2.3701517870260864e-05  2.1111805951691420e-04 1.3126723791281791e-05 3.7041050088827657e-05  1.9071249776779741e-04 1.7922814220099796e-05 2.6161874078356629e-05  2.5453270827624779e-04 1.0112622897610613e-06 -1.1856085726564053e-05  9.3488334723460304e-05 -4.1398552259015441e-05 3.4906464160745810e-05  1.5180709269799403e-04 -1.2497637960392663e-05 -2.7186056313972816e-05  -6.7438331654796170e-05 -4.1142034702002502e-05 -3.9849367381173833e-05  2.4602219433981180e-04 1.6576644054131077e-05 7.2187551489670319e-06  1.7172301422559825e-04 1.5944004453686151e-06 4.4071106736402362e-05  1.3313276488887885e-04 -1.8954927543578811e-05 -4.4298371985221348e-05  1.2759441509911369e-04 2.1098078744997793e-05 3.7306446825637401e-05  1.4388082590729219e-04 3.5124452767255740e-05 2.9307162308579275e-05  1.4297921756136823e-04 -3.7686027352876167e-05 -2.0812716744176979e-05  7.1134736768756681e-05 4.7662942640307396e-05 -4.6069175595734969e-06  1.2775754052201947e-04 -3.7907172211856362e-06 -4.3422961765571885e-05  2.0460707826524424e-04 2.1954522826037883e-06 -3.7536705027415356e-05  8.3266163300968314e-05 4.2059286034744228e-05 3.6126325694721599e-05  7.1132861229493465e-05 2.9366662697197844e-05 1.7110528089540417e-05  6.0260570986011337e-05 1.9208377439333910e-05 4.4182746341136623e-05  -1.2510958970456544e-04 -3.7658480381821342e-05 -1.8192492497492052e-06  1.7856191083504447e-04 3.7576988032919085e-05 -1.2147065028188550e-05  1.7282377758736292e-04 9.9628427083440555e-06 -1.4130395472758064e-05  -5.6283719149145897e-05 -4.6251796988752922e-05 -2.5957969359552011e-05  7.2176252698746066e-06 -4.7170297755178387e-05 -3.4259601440183035e-05  5.5952540916687783e-07 -2.7815596441822191e-05 -4.4257844192402492e-05  7.8875189578222932e-05 -1.7887689232089147e-05 -5.6990903293424043e-05  1.3189277659632006e-04 3.3177229850605486e-05 -4.1351465810597828e-05  -7.1564864080749533e-05 -4.0601347419351290e-05 4.1941624269229216e-05  1.7148342452904424e-04 4.8958554431710091e-05 1.5972890955837857e-05  2.4089711860612939e-05 -2.4992922436971314e-05 3.9625459042014016e-05  4.5588903276966046e-05 -2.4328785238983609e-05 5.2634071553264342e-05  3.0669414409953450e-05 -6.0031622568558103e-05 -1.8051844485800964e-05  5.8860183764231468e-05 -1.9752239478452151e-06 -5.9275916482005484e-05  2.1746141159830818e-05 4.2406613952621239e-05 2.8772728463182403e-05  1.2584239495108722e-04 8.4260165959620910e-06 -4.5177868269204837e-05  1.5731643372349314e-04 8.8910920498771032e-06 -2.9945102875030000e-05  1.9584839661370467e-04 8.9025169218115471e-06 -1.9687373565391341e-05  2.0703435550177009e-04 1.2357101522221499e-05 -8.2146690379358559e-06  2.7064347330144273e-04 6.6881306243785175e-06 6.4974875811533924e-06  1.0458072562812312e-04 -2.4449077193986940e-05 4.5940477982158584e-05  1.5043246699035924e-04 -3.3114676574210707e-05 3.4003208824945013e-05  9.2780624269153606e-06 5.9042963133620331e-05 2.1328937525960910e-05  2.2041273604557292e-05 -3.8049100817915859e-05 3.6520870676499095e-05  -1.1236951852036423e-04 -5.6805269035969456e-05 -1.4004639489246709e-05  -2.4221686616018160e-04 1.5604014820678195e-05 -2.1492129753576549e-05  -1.6200638737351371e-07 1.2096949171287353e-05 4.5783713312547869e-05  -3.2806420957445745e-05 6.1145157882036354e-05 9.7928541551112617e-06  9.8330404135768811e-05 -3.4082370075034870e-05 -4.0032922824158281e-05  -2.6927704599570513e-04 -1.4114427037509870e-05 9.8586692131507399e-06  -1.5917924363450148e-04 -3.4325648236104275e-05 -1.2783355051063978e-05  -2.1484663942293334e-04 -4.6431265432856965e-05 -4.0309291137677988e-06  1.9668062223643181e-04 2.7959621528385224e-05 1.2344863429185577e-05  1.0551209842871491e-04 -5.5450486585676692e-05 -3.3871787369510675e-06  1.2942515009166548e-04 -2.2178666480232650e-05 -7.8449086634891800e-06  2.3040571231553825e-05 3.9032119708231773e-05 4.4031086942594975e-05  4.4389315883060877e-05 8.1811866682544437e-06 5.2081761224887247e-05  9.6186880612530152e-05 1.2523237839133996e-05 3.6302634356750003e-05  -6.4680162141591885e-05 -6.0027523946977892e-05 4.1518462964882603e-06  -2.7388335039781867e-05 6.1413071933779926e-05 -7.4729345232504228e-06  -1.6256204785047732e-04 3.6035428421403506e-05 -2.9563244494397125e-05  -2.6702646577369280e-04 -1.6944645234863825e-05 -6.4502515905047476e-06  -1.1395792226274937e-04 1.3872517973789711e-05 -4.6188229701016521e-05  2.2576143580818809e-04 2.6927634050066019e-05 -9.4831749344081534e-07  3.3897587876448657e-05 2.5813434332403862e-05 -3.5241224903099498e-05  -1.2032569936290991e-04 -2.7854512593545394e-05 3.7033107966557226e-05  2.3661238391187763e-04 -1.4195407386576418e-06 -2.7377047558672501e-05  -5.2554631152349858e-05 2.5770787776011896e-05 2.5983072359400022e-05  -6.2382131709337718e-05 -2.7870055192698545e-05 -4.8571040281172887e-05  -3.4151305061405572e-05 -3.5414420672175917e-05 -1.0268745201975959e-05  1.4950402483314578e-04 -3.4107079544059291e-05 2.6989699842661580e-05  -2.1971611401987867e-04 2.9965665962115612e-05 8.9113824714499934e-06  -1.4877216942081166e-05 -1.7209836631463592e-05 -5.0657624340289950e-05  -2.0893821491924921e-04 2.4338207983413020e-05 -2.7233011504816127e-05  2.6893716005052493e-04 -1.5773308666512586e-05 1.8322207699097501e-06  1.4047160088197100e-04 5.7069876200756798e-05 -4.4311866267818659e-08  7.7010248759328901e-05 4.3330461109432802e-05 1.0845559836062550e-05  -2.4745401523729833e-04 -3.1236886255648314e-05 -2.4272204849253145e-06  4.8561415816367475e-05 -4.2955392216542352e-06 -3.9024388720502867e-05  -5.1694118768032820e-05 -2.7720340436246964e-05 4.4894111942894001e-05  1.2137079966006722e-04 7.4102529380904193e-06 4.7095812326859291e-05  1.0991190446695559e-04 -4.9447969536563470e-05 -1.4116517520755115e-05  -2.5023306567605622e-04 2.6999367516947929e-05 -1.4986426656939124e-05  2.6816456760448975e-05 5.5077821980026058e-05 1.7369736908433375e-06  1.4586708483604348e-04 -9.4372007210523157e-06 3.4172786193102012e-05  1.2313964353914952e-04 -1.1914245988329407e-05 5.3900323182437797e-05  8.6648533429829945e-05 -4.9215329867274570e-05 -2.6716596643829852e-05  2.1408132722674353e-04 5.4670399829045371e-05 1.2103443391456715e-06  8.3504611602040126e-06 1.4643016986853330e-05 -1.7465652737970221e-06  1.2107106944474705e-04 3.1860463959540027e-05 -3.2549603833618475e-06  -1.9815063019009758e-04 -1.0306096267140920e-05 -1.8056377340201831e-06  8.8754763249222245e-05 -3.8309649515376408e-05 -1.8321980098079287e-05  -1.3511337429974635e-04 2.5932307902769390e-05 -1.4373083580580680e-05  6.7839980306194414e-05 -9.2808102704432629e-06 3.2314048621629925e-05  1.7068462585064574e-04 -8.3406543305743135e-06 -1.9015869499948532e-06  -3.6937646072139082e-05 -4.7102003842763277e-05 1.8347490412702051e-05  -1.2463986368753578e-04 2.3380224658263167e-05 1.8646148070874173e-05  9.4862571931049464e-05 9.7084445154669048e-06 -3.0836902318179492e-05  -1.0578705158333215e-04 -3.8212685853334588e-05 -3.1289545268196959e-05  3.8097182050383474e-05 2.7346157002286797e-05 2.2573768837983145e-05  -2.8241629645324790e-05 3.7147160423945655e-05 1.2579817491595201e-06  -7.9037277672318673e-05 -1.9730705180979114e-05 4.1604139505038581e-05  3.5818710155688549e-05 2.8288830512887114e-05 -2.6157707703174570e-05  -5.5438042497686190e-05 1.5846424402081489e-05 -4.0325065685330030e-05  1.0743874475405683e-04 -3.1857756163575165e-05 1.1842878137519407e-05  1.7217787354601873e-04 2.2711647052424607e-05 1.4123654163163835e-05  -1.6633889879739543e-04 1.1051570757101523e-06 -2.5925167667928634e-05  2.3235410578006801e-05 -2.9585248239436035e-05 -4.3529313492753542e-05  -4.3368483213806041e-05 -5.8821073963148789e-05 -1.5004667786320838e-05  -1.5326995999827005e-04 -3.7925670314135639e-05 2.4150568744799514e-05  -1.3608674890031318e-04 -4.5596814009321891e-05 -1.3149607661726328e-07  1.7889769776910759e-04 -1.7894007976223338e-05 -2.8107887419140461e-05  -2.3019256122630425e-04 1.8897034995467213e-05 3.1147609346208173e-06  3.5899175490775608e-05 -4.2542011253388758e-05 3.7983758426129203e-05  2.0776435259549266e-04 2.0109209573557208e-05 -1.6690872699646731e-05  -1.9698633916807526e-04 -6.8155821023038308e-06 2.3490084093438522e-05  -1.5909808267793881e-04 4.9493836325174480e-05 4.8798430460400138e-06  1.9239983345439407e-04 -1.5054182916679582e-05 2.3980626255947173e-05  -5.0091622680330582e-05 1.5695497653738068e-05 3.9027552213972666e-05  7.6319327522790287e-05 5.7898335799481327e-05 1.5268097065214614e-05  6.7315594377157967e-05 5.9900250715952061e-05 -1.4464262190137259e-05  -8.0949890703735472e-05 5.2780540747870580e-05 -2.1002533205050012e-05  1.6792397176707669e-04 -4.1294547296821261e-05 -4.2140514643159367e-06  -6.9786746132560886e-05 4.8907164504764490e-05 2.6929445431648867e-05  5.7411989470598897e-05 -5.7090087972785859e-05 3.8161743845089103e-06  1.1572617087045892e-04 2.2035425124204782e-05 3.9064793831319327e-05  -2.0701756680907002e-04 -3.2161082841412813e-05 -1.8143997123755748e-05  -2.8191178016353250e-05 -2.0468241681512271e-05 -1.5119300008384433e-05  -6.9652214833271889e-05 -9.1888930826703668e-06 1.9587020994516595e-05  </DataArray> 
</PointData> 
</Piece>
</UnstructuredGrid>
</VTKFile>