<?xml version="1.0"?>
<VTKFile type="UnstructuredGrid"  version="0.1"  >
<UnstructuredGrid>
<Piece  NumberOfPoints="201" NumberOfCells="657">
<Points>
<DataArray  type="Float64"  NumberOfComponents="3"  format="ascii">-8.464852058660805e-05 0.0003177429498767776 5499.871091152405  -0.0004129209201976709 0.0005795337082750446 -5499.871327479656  309.0139524645577 0.0007025659885689896 -5230.684348635562  587.7772119870198 0.0008363297986088344 -4449.476141975078  809.0014656152114 9.903570092485831e-05 -3232.725128348041  951.0336012459834 -6.928480815955362e-05 -1699.540342442458  999.9744339420918 -0.0001496282156032733 -0.0001278341477580072  951.0337312219133 -0.0001348739764007021 1699.54035726504  809.0015868839243 0.0003729310388391636 3232.724756083078  587.7776181203175 0.000440049322478671 4449.47626255465  309.0143978509126 0.0004679287233480882 5230.684322386855  391.493142144555 -753.6316987285578 -4781.59392308832  388.9427915787604 585.3981078541109 4900.413694750893  951.8272284073889 -670.893526568177 -815.3044603228841  685.3126387702684 -732.0766828939121 3667.161706486097  865.7398699339254 678.5537872785053 2312.562006981741  862.140403977025 678.5456404401027 -2352.897212448675  437.148526271811 674.5590032740507 -4718.663616133368  150.6315660110231 -674.5535294299968 5230.685886173384  680.8712115160515 -674.565965557713 -3744.743546525508  473.9448461738665 -1323.522304877314 -3869.947219326081  704.1897173850771 -1297.268805724411 -2665.366593088299  482.8588073350385 -1854.425188876925 -2560.047125209144  680.3442928008437 -1740.373324408168 -1260.733960326728  426.9025224491303 -2207.81806409153 -1070.897900062073  607.8542336597253 -1981.391187750405 270.8953669237945  319.2885431360808 -2358.816227679134 488.7457619196591  463.121085090785 -2049.272550193112 1854.150543898792  166.830130032653 -2296.35637854388 1971.668053339571  296.3766267708544 -1873.1085309631 3257.63309122596  -11.51615931865164 -2012.031421499266 3263.914327695666  710.2241246154807 -1609.86797261889 1564.73169328958  680.8714344063047 674.5662468250814 3744.743607300299  689.8863852398276 1305.827130206456 2756.727169165384  835.4704067406494 1251.310371346602 1247.716914931628  110.8657735697677 -1494.986765054033 4365.827884788007  405.9801602507391 -1310.975228069316 4116.483875704373  473.8946500890796 1248.03945263218 3989.649140443388  456.6404389608477 1825.768041738766 2794.505771381084  953.6494267358307 -654.5439607949775 815.2008491822007  840.8222198936937 -1352.616695268519 94.40391033888845  867.6568939423931 -679.1590539536812 -2289.854375906956  150.6312511591897 674.5544440342252 -5230.686203264841  674.0940839819997 657.6438329210118 -3796.048960766544  684.6067424732597 1298.799491327411 -2812.051219912593  207.1727837038934 -2227.835789440496 -2220.636741653209  -144.9416399879964 -2323.634967363329 1866.554953561026  202.1918437238777 -1357.490544552739 -4482.59855381965  829.7615300603264 1266.229458493636 -1289.419836850382  620.5044379299228 1829.251917376884 -1552.022327547852  440.5897533546827 1780.287247419455 -3006.410985437734  347.8504830527087 2217.134305049009 -1673.258829535163  153.6761694589353 2081.897868367334 -2925.524090524563  44.98710790533904 2400.309542765415 -1518.382699786322  -157.5375883671468 2142.044374453086 -2700.543531038787  -259.9511725682964 2357.374851649046 -1145.127963929855  -458.1273649579378 2013.293733945273 -2069.85992041697  -49.99851736624588 2496.563125448685 101.4008188330975  -319.3807156162774 -1934.211540623575 3009.640357894001  -441.1579511663559 -2139.004451771836 1489.959376537942  -537.9031790064353 2092.222176073461 -559.3530331980377  -710.5419690275395 1636.588047284209 -1419.493665023922  -756.8678406171928 1632.957684733882 127.026803851333  -887.8276072047425 1077.390956634251 -887.2997535337438  -899.996294620342 1022.655837562307 827.9025103902093  -788.7323263794419 1021.17020616383 -2526.637196475255  -727.8317130048351 1511.061550435115 1781.76302387305  -939.2597415698265 446.6278049734068 -1611.339177314163  -831.4222321578532 840.6787994597494 2432.667177565873  -799.5173826075844 286.7152575305108 -3242.558693781049  -897.8043269176334 -324.3753442679503 -2314.37008043683  -618.5204896210854 1267.228611917354 3302.220728608246  -138.1271101681556 -1035.83822088614 4947.597996677865  -602.4829463974424 -1654.16347815959 2454.958012835496  -718.4496841413688 -439.4110691235217 -3701.370083388895  -776.1954223393104 -1031.344495970624 -2622.271807957771  -960.8177863908334 283.446502098933 1390.609558074867  -334.29637146896 1667.350784314134 -3662.527200347229  -684.1199014417647 541.1199208283093 3830.67335734374  215.061724288522 1684.786763359032 3887.488005623059  -925.7647894137277 -844.873529412443 -932.1402789049189  -582.0823285503826 175.5032785656688 -4455.370879493109  -453.4956295901956 964.2215892038273 4419.061332468807  -559.3448757270344 -1109.47762119168 -3850.641141708219  -585.686969722705 -1651.954330577782 -2581.824862600759  -493.6006585408284 1860.235780879201 2476.313774789907  -252.0333324037165 -2414.056873735251 353.8678666231241  -477.5975590842458 162.3488298532733 4818.827871444445  -705.694330888613 -234.5502757290762 3862.356060886114  -338.0634173265136 -1656.676633886014 -3675.484973344367  -339.1874609577172 -2112.02395391935 -2276.353841406506  -291.3074908678124 -1049.055552204905 -4728.167923896625  507.0244504399868 2153.778290711595 -155.1528732643973  -681.8546923059981 -1774.281860032766 974.9453440779221  -821.0057829551671 -1198.275765975794 1705.941684297119  179.0841894465913 2169.171193627134 2551.003901689997  -64.64551487820971 1956.356319300956 3405.869866695346  -22.39474184748721 1474.12462840596 4440.365121236366  -270.8904261909046 622.8128728161158 5113.859604263771  -451.762826120137 -1352.768261326757 3901.132180954094  235.7941994393609 1647.110395189439 -3929.036288335313  -560.5007779130337 -1997.293452379535 -1200.282095347897  -74.05118499266676 1263.567695713652 -4728.192473120527  -164.0905061070486 541.7713067445935 -5292.78620201205  -111.2719071821801 2335.257373023482 1866.260803542201  -211.2766911749596 -383.4613683771419 5309.112395585303  -72.26237772715496 -2048.635852235277 -3127.28671482407  -456.5041294256194 -616.2456307711415 4701.78873204844  -703.7617349617227 -992.0999108216329 3240.876927272645  -876.1403821180189 -476.8580413562734 2434.670569090233  -958.6231279472531 -619.0582746419497 771.698166252287  -995.6736957194076 -80.5211789477558 -477.7486354572419  -384.067732903052 1073.57567256929 -4495.40539897107  -582.5101781244655 1187.51360002252 -3627.652451581403  -85.04045635051631 -2353.012673264659 -1798.854224847353  -34.01757930885045 1847.131313423035 -3701.587566194155  398.7639044220721 2197.887798270088 1435.701762041279  861.8522467959933 -649.1536581876611 2395.832303766451  49.96576119576941 -707.9180192695803 -5267.606380979595  158.0692921137812 -2438.494274245724 -846.7092689198086  -304.5086960300601 1596.882044658032 3886.238529742888  955.8952658000782 629.0178430103125 -832.6869471100656  638.9043053248171 1812.637501856937 1414.441026440777  753.703289582089 1642.848278320149 -62.8545895897132  -763.474494392255 -1485.792790352827 -1390.427211701645  -331.3234487332482 2350.868596682422 427.9714103012893  -555.8588174248976 2027.375274400441 1005.764096922525  -54.23489119548673 -1528.379915859911 -4342.197101937181  -233.0230294376138 -278.9616788354804 -5313.13717126952  -491.2505597783086 -447.7148269279685 -4688.118524637499  231.0237628867251 2429.131739438824 -280.8529112136904  27.07236405716075 -2483.721570611738 610.9097909361407  552.1881966291246 -1579.548635320233 2991.831459681686  957.5861034706936 637.0653570209432 739.0490721183648  437.394901354596 -669.702309630935 4721.319870481017  -845.7823797916624 -1332.406753115328 135.7880899407528  -178.9932581458847 -1649.38476756047 4014.184906700598  487.2202518331814 1209.946185516638 -3997.87485820349  -856.7704652445113 199.265698199998 2802.011045826809  224.4894611099687 -1861.587152578398 -3457.30651378958  244.9419037365037 1200.464913440486 4632.423675958858  142.460250710062 2418.234572214547 1155.385065236322  -621.933800899238 1567.209156268822 -2581.073938581193  836.2851671791774 -1205.02455077735 -1437.274769352607  -15.30246059840823 650.2006748645617 5309.942397940061  757.4669263205313 -1172.785090772331 2497.308962847114  -970.898853683488 595.8175424709272 -125.0929581301643  -516.8880162530958 -2140.100116319068 53.03799469738059  -315.6623869016352 -2335.857726188213 -911.0848650070917  897.1004979329703 1104.401808597662 -38.2655289672936  -223.200958678955 1231.61843777225 4626.071462521788  277.7442390545717 1118.460653339718 -4675.575392940187  -337.1335251222424 183.647098758328 -5162.096070044333  -365.6121511785838 2187.345458324468 1746.827761795724  850.5285038595413 -1120.758914186426 1512.405479373423  -68.11509146985743 -2481.653901920227 -552.0258785263733  -641.3122088326681 649.8991911355639 -3970.318257061411  -438.2958916379345 552.3081612915532 -4791.79168845085  -279.6334444930947 2011.231397260642 2882.288192487306  -703.1540393874865 -1772.160557269041 -307.6085746373064  1.159051469282031e-05 5.732925506500053e-05 -0.0001635598860148461  -318.8658544714053 -978.1866426494486 152.3451242579287  482.1624112718534 381.4731406176414 -25.14225675047244  -192.0824929687176 1028.171993195825 1211.636182884915  359.3938535583998 -728.8582535337963 1102.310121748365  -234.1417276311067 106.6862357075356 -2448.921090373093  -495.9085522955899 194.1543297694752 2.025780298510345  94.74424988120278 1162.998540741266 -1052.106253320342  334.9407345951785 -573.1090157037435 -1647.646790067296  -260.5347038154717 -108.8942010715552 2375.215612768204  249.8350562787912 865.3565130833366 1915.17266682756  -92.25684616606233 -987.5343106665224 -2080.385017937031  82.52100553464221 -1426.267395275795 10.17324537259366  198.91958
[...]
<PointData  Vectors="Centrifugal"> 
<DataArray  type="Float64"  Name="Centrifugal"  NumberOfComponents="3" format="ascii">-1.9824085141014917e-12 7.4412284600730425e-12 0.0000000000000000e+00  -9.6702427459182952e-12 1.3572170568889045e-11 0.0000000000000000e+00  7.4711972400241276e-06 1.6453474020766280e-11 0.0000000000000000e+00  1.4211008846847239e-05 1.9586096332106769e-11 0.0000000000000000e+00  1.9559671147094413e-05 2.3193345700879921e-12 0.0000000000000000e+00  2.2993663349351534e-05 -1.6225808444239800e-12 0.0000000000000000e+00  2.4176933941676972e-05 -3.5041521918517982e-12 0.0000000000000000e+00  2.2993666393263255e-05 -3.1586364123554553e-12 0.0000000000000000e+00  1.9559673987088417e-05 8.7336890004892324e-12 0.0000000000000000e+00  1.4211018358114426e-05 1.0305534951748413e-11 0.0000000000000000e+00  7.4712076705647124e-06 1.0958447064228416e-11 0.0000000000000000e+00  9.4653408140677193e-06 -1.8220942856719896e-05 0.0000000000000000e+00  9.4036796848133666e-06 1.4153472275577327e-05 0.0000000000000000e+00  2.3012850337134103e-05 -1.6220523158977335e-05 0.0000000000000000e+00  1.6569176124152694e-05 -1.7699789206791276e-05 0.0000000000000000e+00  2.0931466875682537e-05 1.6405732618939333e-05 0.0000000000000000e+00  2.0844440686813280e-05 1.6405535916354689e-05 0.0000000000000000e+00  1.0569175942227406e-05 1.6309160258771998e-05 0.0000000000000000e+00  3.6419003585693891e-06 -1.6309032066327911e-05 0.0000000000000000e+00  1.6461793608593887e-05 -1.6309323309018913e-05 0.0000000000000000e+00  1.1458819544571895e-05 -3.1999472490328157e-05 0.0000000000000000e+00  1.7025576368730538e-05 -3.1364717648853341e-05 0.0000000000000000e+00  1.1674335647172069e-05 -4.4835368500416711e-05 0.0000000000000000e+00  1.6449050501188319e-05 -4.2077869532866070e-05 0.0000000000000000e+00  1.0321449211100729e-05 -5.3379515519636994e-05 0.0000000000000000e+00  1.4696417464349459e-05 -4.7905076497430145e-05 0.0000000000000000e+00  7.7196080142255592e-06 -5.7030272539545634e-05 0.0000000000000000e+00  1.1197125166182513e-05 -4.9546285684410620e-05 0.0000000000000000e+00  4.0335401492765074e-06 -5.5520158227353295e-05 0.0000000000000000e+00  7.1656554581087352e-06 -4.5287093618283924e-05 0.0000000000000000e+00  -2.7843235873064524e-07 -4.8645903639479121e-05 0.0000000000000000e+00  1.7171472211617206e-05 -3.8922577766793119e-05 0.0000000000000000e+00  1.6461798828467276e-05 1.6309329896029486e-05 0.0000000000000000e+00  1.6679756535234656e-05 3.1571637276358217e-05 0.0000000000000000e+00  2.0199623116059609e-05 3.0253550210215259e-05 0.0000000000000000e+00  2.6804609389208036e-06 -3.6145062882169632e-05 0.0000000000000000e+00  9.8156004118470495e-06 -3.1696118095898806e-05 0.0000000000000000e+00  1.1457605979046038e-05 3.0174485856834802e-05 0.0000000000000000e+00  1.1040440015952820e-05 4.4142512315631384e-05 0.0000000000000000e+00  2.3056906664636778e-05 -1.5825231884992712e-05 0.0000000000000000e+00  2.0329016684711258e-05 -3.2702881260501598e-05 0.0000000000000000e+00  2.0977816053318825e-05 -1.6420366477227043e-05 0.0000000000000000e+00  3.6418929850365237e-06 1.6309053485520469e-05 0.0000000000000000e+00  1.6297939091565300e-05 1.5900188496591288e-05 0.0000000000000000e+00  1.6552107739234713e-05 3.1401727030566798e-05 0.0000000000000000e+00  5.0089260938955638e-06 -5.3863503333633415e-05 0.0000000000000000e+00  -3.5043306397567747e-06 -5.6179685642267963e-05 0.0000000000000000e+00  4.8885005429733717e-06 -3.2820747409221760e-05 0.0000000000000000e+00  2.0061596492890708e-05 3.0614256530106580e-05 0.0000000000000000e+00  1.5002268947699934e-05 4.4226733826026095e-05 0.0000000000000000e+00  1.0652374186523596e-05 4.3042902652048409e-05 0.0000000000000000e+00  8.4101656564514901e-06 5.3604763235413364e-05 0.0000000000000000e+00  3.7155103782379464e-06 5.0335095824074619e-05 0.0000000000000000e+00  1.0876769570621963e-06 5.8033483321867464e-05 0.0000000000000000e+00  -3.8088697077461280e-06 5.1789285821610054e-05 0.0000000000000000e+00  -6.2849768123182050e-06 5.6995426915041186e-05 0.0000000000000000e+00  -1.1076389594618270e-05 4.8676409665950237e-05 0.0000000000000000e+00  -1.2088405161912636e-06 6.0360649075372915e-05 0.0000000000000000e+00  -7.7218376493733611e-06 -4.6764409168321364e-05 0.0000000000000000e+00  -1.0666110441879203e-05 -5.1715776672852363e-05 0.0000000000000000e+00  -1.3005172262185685e-05 5.0584693874407153e-05 0.0000000000000000e+00  -1.7179156772728469e-05 3.9568601635521802e-05 0.0000000000000000e+00  -1.8299203217417661e-05 3.9480825342105438e-05 0.0000000000000000e+00  -2.1465493635559345e-05 2.6048613327343030e-05 0.0000000000000000e+00  -2.1759703264528514e-05 2.4725254966925551e-05 0.0000000000000000e+00  -1.9069610962053406e-05 2.4689342055971123e-05 0.0000000000000000e+00  -1.7597181135146258e-05 3.6533686459204717e-05 0.0000000000000000e+00  -2.2708999607552867e-05 1.0798341382171391e-05 0.0000000000000000e+00  -2.0101749560230317e-05 2.0325510482927220e-05 0.0000000000000000e+00  -1.9330368806792895e-05 6.9320586049323277e-06 0.0000000000000000e+00  -2.1706708237672615e-05 -7.8425839211028481e-06 0.0000000000000000e+00  -1.4954304038870257e-05 3.0638425896443005e-05 0.0000000000000000e+00  -3.3395732978579323e-06 -2.5043997630044598e-05 0.0000000000000000e+00  -1.4566554378299254e-05 -3.9993538642257548e-05 0.0000000000000000e+00  -1.7370349428325587e-05 -1.0623863933554673e-05 0.0000000000000000e+00  -1.8766499245140328e-05 -2.4935331624779782e-05 0.0000000000000000e+00  -2.3230221059506647e-05 6.8530258366630561e-06 0.0000000000000000e+00  -8.0824619623519117e-06 4.0312387489577903e-05 0.0000000000000000e+00  -1.6540338940488873e-05 1.3082930643575781e-05 0.0000000000000000e+00  5.1996621064670327e-06 4.0733948846336603e-05 0.0000000000000000e+00  -2.2382723369727999e-05 -2.0426923804522165e-05 0.0000000000000000e+00  -1.4073320058559883e-05 4.2432323679169509e-06 0.0000000000000000e+00  -1.0964408493874799e-05 2.3312479216526206e-05 0.0000000000000000e+00  -1.3523582906095658e-05 -2.6824404853933184e-05 0.0000000000000000e+00  -1.4160468715306910e-05 -3.9940127900983079e-05 0.0000000000000000e+00  -1.1934047205021823e-05 4.4975853159246628e-05 0.0000000000000000e+00  -6.0935429537790378e-06 -5.8365853400844730e-05 0.0000000000000000e+00  -1.1547134541920566e-05 3.9251911149001968e-06 0.0000000000000000e+00  -1.7061956451042927e-05 -5.6708416285440863e-06 0.0000000000000000e+00  -8.1735398428891661e-06 -4.0054313628516075e-05 0.0000000000000000e+00  -8.2007153081793280e-06 -5.1063462124910112e-05 0.0000000000000000e+00  -7.0430975356109069e-06 -2.5363557914525723e-05 0.0000000000000000e+00  1.2258600220830183e-05 5.2072966455294868e-05 0.0000000000000000e+00  -1.6485568137631710e-05 -4.2897691913596641e-05 0.0000000000000000e+00  -1.9849903969475649e-05 -2.8971307694985038e-05 0.0000000000000000e+00  4.3298133552749951e-06 5.2445143036528589e-05 0.0000000000000000e+00  -1.5629689446674991e-06 4.7299819079501289e-05 0.0000000000000000e+00  -5.4144968052439950e-07 3.5640668726521597e-05 0.0000000000000000e+00  -6.5494637684057402e-06 1.5058069245586680e-05 0.0000000000000000e+00  -1.0922512884250110e-05 -3.2706567359805589e-05 0.0000000000000000e+00  5.7009223629932574e-06 3.9823028384141610e-05 0.0000000000000000e+00  -1.3551527212473862e-05 -4.8289555917419748e-05 0.0000000000000000e+00  -1.7903749777620955e-06 3.0549928627741091e-05 0.0000000000000000e+00  -3.9673041688216389e-06 1.3098686755856327e-05 0.0000000000000000e+00  -2.6902796511977020e-06 5.6460686349298046e-05 0.0000000000000000e+00  -5.1081503377347420e-06 -9.2711449407901217e-06 0.0000000000000000e+00  -1.7471257545738309e-06 -4.9530905595795078e-05 0.0000000000000000e+00  -1.1037147028712557e-05 -1.4899288699361523e-05 0.0000000000000000e+00  -1.7015229741498665e-05 -2.3986499688323295e-05 0.0000000000000000e+00  -2.1182926595618066e-05 -1.1529234534082962e-05 0.0000000000000000e+00  -2.3177159053341449e-05 -1.4967276749566447e-05 0.0000000000000000e+00  -2.4072952694811674e-05 -1.9468000415385967e-06 0.0000000000000000e+00  -9.2858120292287349e-06 2.5956390318761589e-05 0.0000000000000000e+00  -1.4083663117379504e-05 2.8711118452813618e-05 0.0000000000000000e+00  -2.0560679410090740e-06 -5.6889964613228266e-05 0.0000000000000000e+00  -8.2246108835934870e-07 4.4659034350552642e-05 0.0000000000000000e+00  9.6411266284776600e-06 5.3139429014038047e-05 0.0000000000000000e+00  2.0837473549167185e-05 -1.5694911255860357e-05 0.0000000000000000e+00  1.2080492351766202e-06 -1.7115703293398323e-05 0.0000000000000000e+00  3.8217246692977861e-06 -5.8956690165939294e-05 0.0000000000000000e+00  -7.3622695885615049e-06 3.8608631009879948e-05 0.0000000000000000e+00  2.3111205676292437e-05 1.5208074661458421e-05 0.0000000000000000e+00  1.5447132715124758e-05 4.3825037920202543e-05 0.0000000000000000e+00  1.8222692038962661e-05 3.9719955154685437e-05 0.0000000000000000e+00  -1.8458936562251416e-05 -3.5922748796275384e-05 0.0000000000000000e+00  -8.0105823100074789e-06 5.6838118944592240e-05 0.0000000000000000e+00  -1.3439295606753710e-05 4.9016859019816467e-05 0.0000000000000000e+00  -1.3112658524245766e-06 -3.6952426303448266e-05 0.0000000000000000e+00  -5.6339230754353338e-06 -6.7446021306480646e-06 0.0000000000000000e+00  -1.1877230285123265e-05 -1.0824632312781958e-05 0.0000000000000000e+00  5.5855834008017593e-06 5.8730326222105517e-05 0.0000000000000000e+00  6.5454272175910172e-07 -6.0050172808149791e-05 0.0000000000000000e+00  1.3350550846847966e-05 -3.8189542982860771e-05 0.0000000000000000e+00  2.3152086009664178e-05 1.5402643114188205e-05 0.0000000000000000e+00  1.0575132482138261e-05 -1.6191738363854465e-05 0.0000000000000000e+00  -2.0448941441031030e-05 -3.2214255052481651e-05 0.0000000000000000e+00  -4.3276156007836441e-06 -3.9878018808810927e-05 0.0000000000000000e+00  1.1779786508534120e-05 2.9253485824153889e-05 0.0000000000000000e+00  -2.0714609358392648e-05 4.8177461489207339e-06 0.0000000000000000e+00  5.4276012873875782e-06 -4.5008537684365503e-05 0.0000000000000000e+00  5.9220916909491645e-06 2.9024258358531267e-05 0.0000000000000000e+00  3.4443365531274468e-06 5.8466863264934674e-05 0.0000000000000000e+00  -1.5036828394713609e-05 3.7891201262260438e-05 0.0000000000000000e+00  2.0219322337022699e-05 -2.9134475352496761e-05 0.0000000000000000e+00  -3.6997585941670754e-07 1.5720239462357517e-05 0.0000000000000000e+00  1.8313689340407048e-05 -2.8355011181297904e-05 0.0000000000000000e+00  -2.3473956086927280e-05 1.4405374056636362e-05 0.0000000000000000e+00  -1.2497077057106243e-05 -5.1742261867770693e-05 0.0000000000000000e+00  -7.6319364630773159e-06 -5.6475194538942298e-05 0.0000000000000000e+00  2.1689689324453568e-05 2.6701667150561033e-05 0.0000000000000000e+00  -5.3964492297408839e-06 2.9777473207361353e-05 0.0000000000000000e+00  6.7151716453039341e-06 2.7041599679016189e-05 0.0000000000000000e+00  -8.1510588603917519e-06 4.4401305617289424e-06 0.0000000000000000e+00  -8.8395991336932272e-06 5.2884543651896989e-05 0.0000000000000000e+00  2.0563691752193900e-05 -2.7097143389541595e-05 0.0000000000000000e+00  -1.6468544506162099e-06 -6.0000181466066106e-05 0.0000000000000000e+00  -1.5505353155160255e-05 1.5712943327706149e-05 0.0000000000000000e+00  -1.0596916261499033e-05 1.3353439158180960e-05 0.0000000000000000e+00  -6.7608465745852171e-06 4.8626555635639751e-05 0.0000000000000000e+00  -1.7000534103267530e-05 -4.2846402432643195e-05 0.0000000000000000e+00  2.7144489400394859e-13 1.3426008209472813e-12 0.0000000000000000e+00  -7.7093948839389110e-06 -2.3650096827173672e-05 0.0000000000000000e+00  1.1657507125728664e-05 9.2230625786202520e-06 0.0000000000000000e+00  -4.6440837840381552e-06 2.4858619189257384e-05 0.0000000000000000e+00  8.6892629895546832e-06 -1.7621963220528515e-05 0.0000000000000000e+00  -5.6609734022194598e-06 2.5794061018599318e-06 0.0000000000000000e+00  -1.1989855506893761e-05 4.6941642162212498e-06 0.0000000000000000e+00  2.2906835994968787e-06 2.8118386891736646e-05 0.0000000000000000e+00  8.0980465923215954e-06 -1.3856338176793917e-05 0.0000000000000000e+00  -6.2990911646203399e-06 -2.6327890644238974e-06 0.0000000000000000e+00  6.0403991239868790e-06 2.0922151169662499e-05 0.0000000000000000e+00  -2.2305442512452857e-06 -2.3876104932473473e-05 0.0000000000000000e+00  1.9951553529771688e-06 -3.4483566230207824e-05 0.0000000000000000e+00  4.8093882148624895e-06 9.1575039285070947e-06 0.0000000000000000e+00  -1.8996393179676797e-06 -2.6853783308930352e-05 0.0000000000000000e+00  4.2163793990475985e-06 -3.2769394294386378e-06 0.0000000000000000e+00  -8.1581521185916799e-06 2.6272137793217502e-05 0.0000000000000000e+00  -1.2009522832081363e-05 -1.2548618108915240e-05 0.0000000000000000e+00  1.2228863765719364e-05 1.5749849184586221e-06 0.0000000000000000e+00  -1.6319989328174183e-06 1.6291707292353890e-05 0.0000000000000000e+00  2.5102878391220295e-06 3.6904283509336387e-05 0.0000000000000000e+00  1.0366461915208721e-05 2.1832241633011164e-05 0.0000000000000000e+00  1.0365064679430531e-05 3.0656967816464583e-05 0.0000000000000000e+00  -1.1906643380727887e-05 1.3872846833652354e-05 0.0000000000000000e+00  1.4634094570317093e-05 -1.1507151610750753e-05 0.0000000000000000e+00  -2.9216149148454590e-06 2.4263973556398331e-05 0.0000000000000000e+00  -1.4075024383009182e-05 -1.2751221246766434e-05 0.0000000000000000e+00  1.3758723563521310e-05 2.1840299514549101e-06 0.0000000000000000e+00  1.0191482210717223e-05 -3.0165440806311476e-05 0.0000000000000000e+00  -1.3096344246958042e-05 1.1134666910302397e-05 0.0000000000000000e+00  3.0276749871885172e-06 -1.1851406663370269e-05 0.0000000000000000e+00  -4.7186505637731867e-06 -3.7902507902842841e-05 0.0000000000000000e+00  -4.5734499825982352e-06 -3.9907103724425454e-05 0.0000000000000000e+00  5.4400817111273938e-06 -3.5185596461477000e-05 0.0000000000000000e+00  -1.1889453350162130e-05 3.0040487305136849e-05 0.0000000000000000e+00  4.5881590374950703e-06 -3.4273885868033519e-05 0.0000000000000000e+00  -3.2818406753432676e-06 4.0440175623307894e-05 0.0000000000000000e+00  -7.9508215632606563e-06 -1.5266804983412670e-05 0.0000000000000000e+00  1.3716226621506456e-05 1.9632203604979581e-05 0.0000000000000000e+00  1.7277282163840895e-06 1.8131629276601455e-05 0.0000000000000000e+00  5.1368079115319199e-06 9.7634222042255209e-06 0.0000000000000000e+00  </DataArray> 
</PointData> 
</Piece>
</UnstructuredGrid>
</VTKFile>