<?xml version="1.0"?>
<VTKFile type="UnstructuredGrid"  version="0.1"  >
<UnstructuredGrid>
<Piece  NumberOfPoints="201" NumberOfCells="657">
<Points>
<DataArray  type="Float64"  NumberOfComponents="3"  format="ascii">-8.464852058660805e-05 0.0003177429498767776 5499.871091152405  -0.0004129209201976709 0.0005795337082750446 -5499.871327479656  309.0139524645577 0.0007025659885689896 -5230.684348635562  587.7772119870198 0.0008363297986088344 -4449.476141975078  809.0014656152114 9.903570092485831e-05 -3232.725128348041  951.0336012459834 -6.928480815955362e-05 -1699.540342442458  999.9744339420918 -0.0001496282156032733 -0.0001278341477580072  951.0337312219133 -0.0001348739764007021 1699.54035726504  809.0015868839243 0.0003729310388391636 3232.724756083078  587.7776181203175 0.000440049322478671 4449.47626255465  309.0143978509126 0.0004679287233480882 5230.684322386855  391.493142144555 -753.6316987285578 -4781.59392308832  388.9427915787604 585.3981078541109 4900.413694750893  951.8272284073889 -670.893526568177 -815.3044603228841  685.3126387702684 -732.0766828939121 3667.161706486097  865.7398699339254 678.5537872785053 2312.562006981741  862.140403977025 678.5456404401027 -2352.897212448675  437.148526271811 674.5590032740507 -4718.663616133368  150.6315660110231 -674.5535294299968 5230.685886173384  680.8712115160515 -674.565965557713 -3744.743546525508  473.9448461738665 -1323.522304877314 -3869.947219326081  704.1897173850771 -1297.268805724411 -2665.366593088299  482.8588073350385 -1854.425188876925 -2560.047125209144  680.3442928008437 -1740.373324408168 -1260.733960326728  426.9025224491303 -2207.81806409153 -1070.897900062073  607.8542336597253 -1981.391187750405 270.8953669237945  319.2885431360808 -2358.816227679134 488.7457619196591  463.121085090785 -2049.272550193112 1854.150543898792  166.830130032653 -2296.35637854388 1971.668053339571  296.3766267708544 -1873.1085309631 3257.63309122596  -11.51615931865164 -2012.031421499266 3263.914327695666  710.2241246154807 -1609.86797261889 1564.73169328958  680.8714344063047 674.5662468250814 3744.743607300299  689.8863852398276 1305.827130206456 2756.727169165384  835.4704067406494 1251.310371346602 1247.716914931628  110.8657735697677 -1494.986765054033 4365.827884788007  405.9801602507391 -1310.975228069316 4116.483875704373  473.8946500890796 1248.03945263218 3989.649140443388  456.6404389608477 1825.768041738766 2794.505771381084  953.6494267358307 -654.5439607949775 815.2008491822007  840.8222198936937 -1352.616695268519 94.40391033888845  867.6568939423931 -679.1590539536812 -2289.854375906956  150.6312511591897 674.5544440342252 -5230.686203264841  674.0940839819997 657.6438329210118 -3796.048960766544  684.6067424732597 1298.799491327411 -2812.051219912593  207.1727837038934 -2227.835789440496 -2220.636741653209  -144.9416399879964 -2323.634967363329 1866.554953561026  202.1918437238777 -1357.490544552739 -4482.59855381965  829.7615300603264 1266.229458493636 -1289.419836850382  620.5044379299228 1829.251917376884 -1552.022327547852  440.5897533546827 1780.287247419455 -3006.410985437734  347.8504830527087 2217.134305049009 -1673.258829535163  153.6761694589353 2081.897868367334 -2925.524090524563  44.98710790533904 2400.309542765415 -1518.382699786322  -157.5375883671468 2142.044374453086 -2700.543531038787  -259.9511725682964 2357.374851649046 -1145.127963929855  -458.1273649579378 2013.293733945273 -2069.85992041697  -49.99851736624588 2496.563125448685 101.4008188330975  -319.3807156162774 -1934.211540623575 3009.640357894001  -441.1579511663559 -2139.004451771836 1489.959376537942  -537.9031790064353 2092.222176073461 -559.3530331980377  -710.5419690275395 1636.588047284209 -1419.493665023922  -756.8678406171928 1632.957684733882 127.026803851333  -887.8276072047425 1077.390956634251 -887.2997535337438  -899.996294620342 1022.655837562307 827.9025103902093  -788.7323263794419 1021.17020616383 -2526.637196475255  -727.8317130048351 1511.061550435115 1781.76302387305  -939.2597415698265 446.6278049734068 -1611.339177314163  -831.4222321578532 840.6787994597494 2432.667177565873  -799.5173826075844 286.7152575305108 -3242.558693781049  -897.8043269176334 -324.3753442679503 -2314.37008043683  -618.5204896210854 1267.228611917354 3302.220728608246  -138.1271101681556 -1035.83822088614 4947.597996677865  -602.4829463974424 -1654.16347815959 2454.958012835496  -718.4496841413688 -439.4110691235217 -3701.370083388895  -776.1954223393104 -1031.344495970624 -2622.271807957771  -960.8177863908334 283.446502098933 1390.609558074867  -334.29637146896 1667.350784314134 -3662.527200347229  -684.1199014417647 541.1199208283093 3830.67335734374  215.061724288522 1684.786763359032 3887.488005623059  -925.7647894137277 -844.873529412443 -932.1402789049189  -582.0823285503826 175.5032785656688 -4455.370879493109  -453.4956295901956 964.2215892038273 4419.061332468807  -559.3448757270344 -1109.47762119168 -3850.641141708219  -585.686969722705 -1651.954330577782 -2581.824862600759  -493.6006585408284 1860.235780879201 2476.313774789907  -252.0333324037165 -2414.056873735251 353.8678666231241  -477.5975590842458 162.3488298532733 4818.827871444445  -705.694330888613 -234.5502757290762 3862.356060886114  -338.0634173265136 -1656.676633886014 -3675.484973344367  -339.1874609577172 -2112.02395391935 -2276.353841406506  -291.3074908678124 -1049.055552204905 -4728.167923896625  507.0244504399868 2153.778290711595 -155.1528732643973  -681.8546923059981 -1774.281860032766 974.9453440779221  -821.0057829551671 -1198.275765975794 1705.941684297119  179.0841894465913 2169.171193627134 2551.003901689997  -64.64551487820971 1956.356319300956 3405.869866695346  -22.39474184748721 1474.12462840596 4440.365121236366  -270.8904261909046 622.8128728161158 5113.859604263771  -451.762826120137 -1352.768261326757 3901.132180954094  235.7941994393609 1647.110395189439 -3929.036288335313  -560.5007779130337 -1997.293452379535 -1200.282095347897  -74.05118499266676 1263.567695713652 -4728.192473120527  -164.0905061070486 541.7713067445935 -5292.78620201205  -111.2719071821801 2335.257373023482 1866.260803542201  -211.2766911749596 -383.4613683771419 5309.112395585303  -72.26237772715496 -2048.635852235277 -3127.28671482407  -456.5041294256194 -616.2456307711415 4701.78873204844  -703.7617349617227 -992.0999108216329 3240.876927272645  -876.1403821180189 -476.8580413562734 2434.670569090233  -958.6231279472531 -619.0582746419497 771.698166252287  -995.6736957194076 -80.5211789477558 -477.7486354572419  -384.067732903052 1073.57567256929 -4495.40539897107  -582.5101781244655 1187.51360002252 -3627.652451581403  -85.04045635051631 -2353.012673264659 -1798.854224847353  -34.01757930885045 1847.131313423035 -3701.587566194155  398.7639044220721 2197.887798270088 1435.701762041279  861.8522467959933 -649.1536581876611 2395.832303766451  49.96576119576941 -707.9180192695803 -5267.606380979595  158.0692921137812 -2438.494274245724 -846.7092689198086  -304.5086960300601 1596.882044658032 3886.238529742888  955.8952658000782 629.0178430103125 -832.6869471100656  638.9043053248171 1812.637501856937 1414.441026440777  753.703289582089 1642.848278320149 -62.8545895897132  -763.474494392255 -1485.792790352827 -1390.427211701645  -331.3234487332482 2350.868596682422 427.9714103012893  -555.8588174248976 2027.375274400441 1005.764096922525  -54.23489119548673 -1528.379915859911 -4342.197101937181  -233.0230294376138 -278.9616788354804 -5313.13717126952  -491.2505597783086 -447.7148269279685 -4688.118524637499  231.0237628867251 2429.131739438824 -280.8529112136904  27.07236405716075 -2483.721570611738 610.9097909361407  552.1881966291246 -1579.548635320233 2991.831459681686  957.5861034706936 637.0653570209432 739.0490721183648  437.394901354596 -669.702309630935 4721.319870481017  -845.7823797916624 -1332.406753115328 135.7880899407528  -178.9932581458847 -1649.38476756047 4014.184906700598  487.2202518331814 1209.946185516638 -3997.87485820349  -856.7704652445113 199.265698199998 2802.011045826809  224.4894611099687 -1861.587152578398 -3457.30651378958  244.9419037365037 1200.464913440486 4632.423675958858  142.460250710062 2418.234572214547 1155.385065236322  -621.933800899238 1567.209156268822 -2581.073938581193  836.2851671791774 -1205.02455077735 -1437.274769352607  -15.30246059840823 650.2006748645617 5309.942397940061  757.4669263205313 -1172.785090772331 2497.308962847114  -970.898853683488 595.8175424709272 -125.0929581301643  -516.8880162530958 -2140.100116319068 53.03799469738059  -315.6623869016352 -2335.857726188213 -911.0848650070917  897.1004979329703 1104.401808597662 -38.2655289672936  -223.200958678955 1231.61843777225 4626.071462521788  277.7442390545717 1118.460653339718 -4675.575392940187  -337.1335251222424 183.647098758328 -5162.096070044333  -365.6121511785838 2187.345458324468 1746.827761795724  850.5285038595413 -1120.758914186426 1512.405479373423  -68.11509146985743 -2481.653901920227 -552.0258785263733  -641.3122088326681 649.8991911355639 -3970.318257061411  -438.2958916379345 552.3081612915532 -4791.79168845085  -279.6334444930947 2011.231397260642 2882.288192487306  -703.1540393874865 -1772.160557269041 -307.6085746373064  1.159051469282031e-05 5.732925506500053e-05 -0.0001635598860148461  -318.8658544714053 -978.1866426494486 152.3451242579287  482.1624112718534 381.4731406176414 -25.14225675047244  -192.0824929687176 1028.171993195825 1211.636182884915  359.3938535583998 -728.8582535337963 1102.310121748365  -234.1417276311067 106.6862357075356 -2448.921090373093  -495.9085522955899 194.1543297694752 2.025780298510345  94.74424988120278 1162.998540741266 -1052.106253320342  334.9407345951785 -573.1090157037435 -1647.646790067296  -260.5347038154717 -108.8942010715552 2375.215612768204  249.8350562787912 865.3565130833366 1915.17266682756  -92.25684616606233 -987.5343106665224 -2080.385017937031  82.52100553464221 -1426.267395275795 10.17324537259366  198.91958
[...]
<PointData  Vectors="Self-Gravity"> 
<DataArray  type="Float64"  Name="Self-Gravity"  NumberOfComponents="3" format="ascii">-2.8764597123197196e-05 -3.0888817242391148e-06 -4.8000398960137599e-05  -2.2566824972656418e-05 -1.6481177925453239e-06 5.2643057998456973e-05  -7.8631653681336057e-05 4.8030223876442907e-07 4.9681808372945521e-05  -1.7326665396960302e-04 4.1293375488887915e-06 4.6551560969602200e-05  -1.6712707841285476e-04 -1.2043114823241639e-06 2.1652441507386374e-05  -2.8058281449932002e-04 8.3024815813605842e-06 1.7396350430221432e-05  -3.0393585553000315e-04 -1.3736503878621601e-06 2.8182614684798113e-06  -3.0007368102232901e-04 -9.1777030147755514e-06 -1.4845010635990330e-05  -1.8749949026089789e-04 1.9687485809064095e-06 -2.4942697578094331e-05  -1.6464722517027042e-04 4.6808359228481822e-07 -4.2068263273903950e-05  -7.7728737182165773e-05 9.4980428804966739e-06 -4.1467756744314674e-05  -1.0486134047931281e-04 3.5035724210430956e-05 4.4758236204386448e-05  -1.1379060899148823e-04 -3.1337951789187254e-05 -5.0463127975319789e-05  -2.5661867196656878e-04 2.9667492833102374e-05 5.7203686377797683e-06  -1.7926769183218327e-04 3.3638007809598792e-05 -3.7945522154403127e-05  -2.2848185380618582e-04 -3.0131050654967989e-05 -2.4031998814610709e-05  -2.3459119711826581e-04 -3.3642282005571416e-05 2.5459073585176372e-05  -1.1961450132812937e-04 -3.0640585488904210e-05 4.8122987239719958e-05  -4.2793479672725966e-05 3.1692388836872118e-05 -4.7733475103849178e-05  -1.8866387925284384e-04 3.6624255695990254e-05 3.7408900247207833e-05  -1.3593514257778473e-04 6.5569797195876446e-05 3.8721395779050108e-05  -2.0703061170229014e-04 7.1001859952355507e-05 2.5936377519177659e-05  -1.4241185185578711e-04 9.4107389164548567e-05 2.2196664512117247e-05  -1.7587948060347039e-04 7.7558922984897907e-05 8.8295347292460487e-06  -1.1356141498866174e-04 1.0026696017427564e-04 1.0388811570016022e-05  -1.6237765402112630e-04 9.2703683489399365e-05 -5.1216849039414860e-06  -1.0319369511765669e-04 1.1182420956836009e-04 -5.5308239441851369e-06  -1.2335610169865465e-04 9.8084638324121890e-05 -1.8560479884817405e-05  -3.9841057784731468e-05 9.9822651194939722e-05 -1.8039591641074790e-05  -5.9275115286471278e-05 6.5557441164725108e-05 -2.0357027546895160e-05  7.5435927960517222e-06 9.6389003542992236e-05 -2.9967968539164461e-05  -2.0891926544564318e-04 8.9168220303223103e-05 -1.6792244340956923e-05  -1.8899770716471523e-04 -3.4438083318563350e-05 -3.3569198604603578e-05  -1.7417652921991001e-04 -5.7541119453888591e-05 -2.3064415140653704e-05  -2.3110952677357914e-04 -5.4168183527109980e-05 -1.5375412703918130e-05  -2.5528773352652025e-05 7.2987328923440254e-05 -4.5620860121381644e-05  -1.0889503699943831e-04 6.1402990619050378e-05 -4.1134115517183814e-05  -1.4993078808189038e-04 -6.4307419461666294e-05 -3.8366032353240650e-05  -1.4377462034954319e-04 -8.9212971629182452e-05 -2.3418698752625688e-05  -2.4846736020701986e-04 1.9708009124376542e-05 -7.5792725184191653e-06  -2.3464733387662388e-04 6.6016676961379436e-05 -2.3110193783141177e-06  -2.4325439544451365e-04 2.7847553352905370e-05 2.3848355920079368e-05  -3.7352383357812370e-05 -3.9933167367046063e-05 5.6925557220801714e-05  -1.8035074835668022e-04 -2.9182478262424685e-05 3.5202550638939629e-05  -1.7668882089200854e-04 -5.6421563844717404e-05 2.4094517531606163e-05  -5.3025383378227969e-05 8.1122556063280247e-05 1.8589305119318975e-05  2.6170806467620961e-05 1.0632491135945079e-04 -1.8319150099718603e-05  -5.6039502622486353e-05 6.3366887145919825e-05 4.2248421739115506e-05  -2.5991388638087079e-04 -6.1857463754477936e-05 1.5285348094989862e-05  -1.7206333955102127e-04 -7.3588024078982976e-05 1.2858556826199012e-05  -1.1678830474079123e-04 -8.4759755880203460e-05 2.7934965289983376e-05  -1.2805700518254946e-04 -1.0524753158878042e-04 1.6740886494458752e-05  -3.9253503228046973e-05 -9.6816833528223971e-05 2.9546059803992052e-05  -1.5871097327406718e-05 -1.1579460744895809e-04 1.6612986760875849e-05  4.5126233713379658e-05 -1.0113896386822350e-04 2.2974703932249836e-05  6.0890528234311877e-05 -9.2221581437075987e-05 7.7496410476277579e-06  1.2830169137374901e-04 -9.9818624098840436e-05 2.1829127802196161e-05  1.1901773941460492e-05 -1.1000926069667297e-04 -1.7524227830105645e-06  8.4011822310224178e-05 8.6595585417181318e-05 -2.5050786759868414e-05  9.5844354570166575e-05 9.1620301146255062e-05 -1.3518038537801781e-05  1.5375156398494543e-04 -9.7144532998069485e-05 5.4297975506703909e-06  2.1836306779974280e-04 -7.9213432148883439e-05 1.4022822142833532e-05  1.6023609121619474e-04 -5.7016047406376172e-05 -3.2183171525047649e-06  2.6709657883753805e-04 -5.7145057628779694e-05 7.6242199719503374e-06  2.7613288075097606e-04 -5.1853114237068122e-05 -1.0164415199992939e-05  1.8818344435506782e-04 -3.4282232139471913e-05 2.0233686580146598e-05  2.1688074123853618e-04 -5.9972587046120178e-05 -1.6068525130535084e-05  2.7001224570428692e-04 -1.8461825361047111e-05 1.6352110628296121e-05  2.2786074717099248e-04 -3.6285994875666532e-05 -2.3032084551560288e-05  2.2781492339917335e-04 -6.4953970003170527e-06 2.7020028832568930e-05  2.6781979211584669e-04 1.3110819248909148e-05 2.0258485277127769e-05  1.7280336540887711e-04 -6.0423786786281092e-05 -2.9330998038653748e-05  5.2110616648827189e-05 4.5979245223191493e-05 -4.2470028975303099e-05  1.6098091144260988e-04 8.0080413454203172e-05 -2.3701517870260864e-05  2.2848840909227646e-04 2.3750588419286279e-05 3.7041050088827657e-05  2.0947899744108275e-04 4.2858147329744923e-05 2.6161874078356629e-05  2.7776292919277418e-04 -5.8417636987722001e-06 -1.1856085726564053e-05  1.0157079616913167e-04 -8.1710941956084369e-05 3.4906464160745810e-05  1.6834743146120070e-04 -2.5580569224867216e-05 -2.7186056313972816e-05  -7.2637994247339287e-05 -8.1875985788632932e-05 -3.9849367381173833e-05  2.6840491813683471e-04 3.7003569170580287e-05 7.2187551489670319e-06  1.8579633423470177e-04 -2.6488320850591078e-06 4.4071106736402362e-05  1.4409717313112276e-04 -4.2267408001136437e-05 -4.4298371985221348e-05  1.4111799834370470e-04 4.7922485121816009e-05 3.7306446825637401e-05  1.5804129528347778e-04 7.5064582898375670e-05 2.9307162308579275e-05  1.5491326402514277e-04 -8.2661882967637591e-05 -2.0812716744176979e-05  7.7228280811726384e-05 1.0602879923181529e-04 -4.6069175595734969e-06  1.3930467502544063e-04 -7.7159085013657814e-06 -4.3422961765571885e-05  2.2166903478411243e-04 7.8662943334669947e-06 -3.7536705027415356e-05  9.1439703650865239e-05 8.2113601869836743e-05 3.6126325694721599e-05  7.9333577378428401e-05 8.0430127618878316e-05 1.7110528089540417e-05  6.7303668737786625e-05 4.4571936761632142e-05 4.4182746341136623e-05  -1.3736819092545591e-04 -8.9731449697157494e-05 -1.8192492497492052e-06  1.9504747980961739e-04 8.0474682353953237e-05 -1.2147065028188550e-05  1.9267368211440758e-04 3.8934152119616901e-05 -1.4130395472758064e-05  -6.0613533324088353e-05 -9.8696942899533820e-05 -2.5957969359552011e-05  8.7805935810332695e-06 -9.4470119433840227e-05 -3.4259601440183035e-05  1.1009747377069314e-06 -6.3456267124847534e-05 -4.4257844192402492e-05  8.5424653227736646e-05 -3.2945759283858257e-05 -5.6990903293424043e-05  1.4281528988139926e-04 6.5883799037234713e-05 -4.1351465810597828e-05  -7.7265786915045156e-05 -8.0424377995805786e-05 4.1941624269229216e-05  1.8503495265558193e-04 9.7248113018394774e-05 1.5972890955837857e-05  2.5880086575790929e-05 -5.5542852742194394e-05 3.9625459042014016e-05  4.9556207360280657e-05 -3.7427472706677078e-05 5.2634071553264342e-05  3.3359693105036157e-05 -1.1649231202548035e-04 -1.8051844485800964e-05  6.3968334163374660e-05 7.2959215178472480e-06 -5.9275916482005484e-05  2.3493267610385265e-05 9.1937522265694868e-05 2.8772728463182403e-05  1.3687954210935002e-04 2.3325306158491907e-05 -4.5177868269204837e-05  1.7433166382561276e-04 3.2877593149817454e-05 -2.9945102875030000e-05  2.1703132341740152e-04 2.0431752265825500e-05 -1.9687373565391341e-05  2.3021151487232310e-04 2.7324379310970567e-05 -8.2146690379358559e-06  2.9471642603946249e-04 8.6349310196295505e-06 6.4974875811533924e-06  1.1386653739526064e-04 -5.0405468914581985e-05 4.5940477982158584e-05  1.6451612972048874e-04 -6.1825796549790739e-05 3.4003208824945013e-05  1.1334131337889951e-05 1.1593293086541622e-04 2.1328937525960910e-05  2.2863734141145531e-05 -8.2708137621879558e-05 3.6520870676499095e-05  -1.2201064610435866e-04 -1.0994470095965896e-04 -1.4004639489246709e-05  -2.6305433942253238e-04 3.1298926776968744e-05 -2.1492129753576549e-05  -1.3700555238843366e-06 2.9212653399489002e-05 4.5783713312547869e-05  -3.6628144546665994e-05 1.2010185129631615e-04 9.7928541551112617e-06  1.0569267325572667e-04 -7.2691003197270030e-05 -4.0032922824158281e-05  -2.9238825198765284e-04 -2.9322502746274964e-05 9.8586692131507399e-06  -1.7462637717099438e-04 -7.8150688601460387e-05 -1.2783355051063978e-05  -2.3306933226117954e-04 -8.6151222847098910e-05 -4.0309291137677988e-06  2.1513955949822354e-04 6.3882372387115551e-05 1.2344863429185577e-05  1.1352267967724903e-04 -1.1228860866724536e-04 -3.3871787369510675e-06  1.4286444476993649e-04 -7.1195528180935605e-05 -7.8449086634891800e-06  2.4351837453894027e-05 7.5984548041193952e-05 4.4031086942594975e-05  5.0023238996370747e-05 1.4925789184195019e-05 5.2081761224887247e-05  1.0806411099371495e-04 2.3347870795123202e-05 3.6302634356750003e-05  -7.0265746634600221e-05 -1.1875785337976257e-04 4.1518462964882603e-06  -2.8042876658627737e-05 1.2146324804318582e-04 -7.4729345232504228e-06  -1.7591259811468557e-04 7.4224973467632282e-05 -2.9563244494397125e-05  -2.9017855210639981e-04 -3.2347289407683698e-05 -6.4502515905047476e-06  -1.2453305460342784e-04 3.0064257189225170e-05 -4.6188229701016521e-05  2.4621037792095816e-04 5.9141891003214198e-05 -9.4831749344081534e-07  3.8225203926732320e-05 6.5691455334658966e-05 -3.5241224903099498e-05  -1.3210548622301076e-04 -5.7108000061940934e-05 3.7033107966557226e-05  2.5732699318393890e-04 -6.2372869810675692e-06 -2.7377047558672501e-05  -5.7982231847353546e-05 7.0779327932309191e-05 2.5983072359400022e-05  -6.8304223671642001e-05 -5.6894315155638417e-05 -4.8571040281172887e-05  -3.7595642660145818e-05 -9.3881287137936127e-05 -1.0268745201975959e-05  1.6454085259985882e-04 -7.1998282841570868e-05 2.6989699842661580e-05  -2.3993543578268412e-04 5.9100142782589002e-05 8.9113824714499934e-06  -1.4507241192162151e-05 -3.2930076955722297e-05 -5.0657624340289950e-05  -2.2725190376726400e-04 5.2693220620467233e-05 -2.7233011504816127e-05  2.9241111583129927e-04 -3.0178683293724707e-05 1.8322207699097501e-06  1.5296867894014598e-04 1.0881214091233229e-04 -4.4311866267818659e-08  8.4642186265975104e-05 9.9805658734745731e-05 1.0845559836062550e-05  -2.6914370511769775e-04 -5.7938555034731906e-05 -2.4272204849253145e-06  5.3957864768340390e-05 -3.4073014054834354e-05 -3.9024388720502867e-05  -5.8409290659244709e-05 -5.4761941616130696e-05 4.4894111942894001e-05  1.2952185848010627e-04 2.9701221584790499e-06 4.7095812326859291e-05  1.1875150267577092e-04 -1.0233251610065846e-04 -1.4116517520755115e-05  -2.7079675689502047e-04 5.4096512253946155e-05 -1.4986426656939124e-05  2.8463312316712472e-05 1.1507800673639601e-04 1.7369736908433375e-06  1.6137243779255453e-04 -2.5150144831922352e-05 3.4172786193102012e-05  1.3373655968021932e-04 -2.5267685841470171e-05 5.3900323182437797e-05  9.3409379276249729e-05 -9.7841888175752712e-05 -2.6716596643829852e-05  2.3108186218750323e-04 9.7516804670197979e-05 1.2103443391456715e-06  8.3504608882055244e-06 1.4643015644364365e-05 -1.7465652737970221e-06  1.2878046487221150e-04 5.5510562152730218e-05 -3.2549603833618475e-06  -2.0980813752901183e-04 -1.9529159475466330e-05 -1.8056377340201831e-06  9.3398846488664634e-05 -6.3168270031316591e-05 -1.8321980098079287e-05  -1.4380263689433930e-04 4.3554272010278725e-05 -1.4373083580580680e-05  7.3500953659419565e-05 -1.1860216461366650e-05 3.2314048621629925e-05  1.8267448125013023e-04 -1.3034818673728677e-05 -1.9015869499948532e-06  -3.9228330286977372e-05 -7.5220392296706690e-05 1.8347490412702051e-05  -1.3273790997711781e-04 3.7236563519226698e-05 1.8646148070874173e-05  1.0116166314711092e-04 1.2341233786239089e-05 -3.0836902318179492e-05  -1.1182745114278632e-04 -5.9134838221596117e-05 -3.1289545268196959e-05  4.0327726787140713e-05 5.1222263263149018e-05 2.2573768837983145e-05  -3.0236784230241503e-05 7.1630728534785251e-05 1.2579817491595201e-06  -8.3846666060442365e-05 -2.8888209655298498e-05 4.1604139505038581e-05  3.7718350016053630e-05 5.5142615311806954e-05 -2.6157707703174570e-05  -5.9654421840203219e-05 1.9123363975172477e-05 -4.0325065685330030e-05  1.1559689629942113e-04 -5.8129895334240909e-05 1.1842878137519407e-05  1.8418739664930088e-04 3.5260265965526910e-05 1.4123654163163835e-05  -1.7856776259670044e-04 -4.6982804853188929e-07 -2.5925167667928634e-05  2.4867409223441914e-05 -4.5876956413897853e-05 -4.3529313492753542e-05  -4.5878771845419078e-05 -9.5725359512725575e-05 -1.5004667786320838e-05  -1.6363642236872294e-04 -5.9757913232562879e-05 2.4150568744799514e-05  -1.4645181425101527e-04 -7.6253783583902411e-05 -1.3149607661726328e-07  1.9080434085835184e-04 -3.1766855461284459e-05 -2.8107887419140461e-05  -2.4482665553188498e-04 3.0404187089484410e-05 3.1147609346208173e-06  3.8820789961718717e-05 -6.6805986124256479e-05 3.7983758426129203e-05  2.2183937725781189e-04 3.2860431659308795e-05 -1.6690872699646731e-05  -2.1074506277777763e-04 -8.9996123103265500e-06 2.3490084093438522e-05  -1.6928956422397081e-04 7.9659278713140624e-05 4.8798430460400138e-06  2.0549617747084816e-04 -2.6188850314922892e-05 2.3980626255947173e-05  -5.3119297468607835e-05 2.7546904943430880e-05 3.9027552213972666e-05  8.1037978890775272e-05 9.5800845807857127e-05 1.5268097065214614e-05  7.1889045197404280e-05 9.9807356653113538e-05 -1.4464262190137259e-05  -8.6389971705085647e-05 8.7966139113715574e-05 -2.1002533205050012e-05  1.7981342446650469e-04 -7.1335036165477833e-05 -4.2140514643159367e-06  -7.4374904476445688e-05 8.3181052229066126e-05 2.6929445431648867e-05  6.0693829286506053e-05 -9.7530265802628995e-05 3.8161743845089103e-06  1.2367699269897855e-04 3.7302231004739510e-05 3.9064793831319327e-05  -2.2073379384692467e-04 -5.1793287645024109e-05 -1.8143997123755748e-05  -2.9918906655532031e-05 -3.8599871970006929e-05 -1.5119300008384433e-05  -7.4789022970062638e-05 -1.8952315875773249e-05 1.9587020994516595e-05  </DataArray> 
</PointData> 
</Piece>
</UnstructuredGrid>
</VTKFile>